 +-------------------------------------------------+
 |                                                 |
 |      CCC   AA    SSS  TTTTT  EEEEE  PPPP        |
 |     C     A  A  S       T    E      P   P       |
 |     C     AAAA   SS     T    EEE    PPPP        |
 |     C     A  A     S    T    E      P           |
 |      CCC  A  A  SSS     T    EEEEE  P           |
 |                                                 |
 +-------------------------------------------------+
 |                                                 |
 | Welcome to Academic Release CASTEP version 6.11 |
 | Ab Initio Total Energy Program                  |
 |                                                 |
 | Authors:                                        |
 | M. Segall, M. Probert, C. Pickard, P. Hasnip,   |
 | S. Clark, K. Refson, J. R. Yates, M. Payne      |
 |                                                 |
 | Contributors:                                   |
 | P. Lindan, P. Haynes, J. White, V. Milman,      |
 | N. Govind, M. Gibson, P. Tulip, V. Cocula,      |
 | B. Montanari, D. Quigley, M. Glover,            |
 | L. Bernasconi, A. Perlov, M. Plummer,           |
 | E. McNellis, J. Meyer, J. Gale, D. Jochym       |
 | J. Aarons, B. Walker, R. Gillen                 |
 |                                                 |
 | Copyright (c) 2000 - 2012                       |
 |                                                 |
 |     Distributed under the terms of an           |
 |     Agreement between the United Kingdom        |
 |     Car-Parrinello (UKCP) Consortium,           |
 |     Daresbury Laboratory and Accelrys, Inc.     |
 |                                                 |
 | Please cite                                     |
 |                                                 |
 |     "First principles methods using CASTEP"     |
 |                                                 |
 |         Zeitschrift fuer Kristallographie       |
 |           220(5-6) pp. 567-570 (2005)           |
 |                                                 |
 | S. J. Clark, M. D. Segall, C. J. Pickard,       |
 | P. J. Hasnip, M. J. Probert, K. Refson,         |
 | M. C. Payne                                     |
 |                                                 |
 |       in all publications arising from          |
 |              your use of CASTEP                 |
 |                                                 |
 +-------------------------------------------------+
 
 
 Compiled for linux_x86_64_ifort on Wed Sep 11 01:33:11 2024
 from source code version 17dc085fd1b9+ Castep61_branch 2013-03-13
 using fast optimisation, mkl FFTs and mkl10 LAPACK and BLAS.
 
 Info: number of up-spin electrons is equal to the
       number of down-spins and spin_polarized=true
     - consider setting spin_polarized=false.

 ******************************* User Parameters *******************************
comment              : CASTEP calculation from Materials Studio # comment string (S)
iprint               : 3                                        # verbosity control (I)
task                 : SinglePoint                              # type of calculation (S)
calculatestress      : F                                        # stress on/off (L)
calculatedensdiff    : F                                        # calculate density difference based on atoms (L)
calculateelf         : F                                        # ELF on/off (L)
calculatehirshfeld   : T                                        # Hirshfeld on/off (L)
pagewvfns            : 0                                        # page wavefunctions to disk (I)
optstrategy          : Speed                                    # optimization strategy (S)
xcfunctional         : PBE                                      # exchange-correlation functional (S)
cutoffenergy         : 380.0000000 ev                           # maximum energy of planewaves in basis set (P)
gridscale            : 1.7500000                                # standard grid size (R)
finitebasiscorr      : 0                                        # finite basis set correction (S)
spin                 : 0.0000000                                # net spin (R)
spinpolarized        : T                                        # spin polarized (L)
nextrabands          : 18                                       # number of extra bands (I)
metalsmethod         : dm                                       # treatment of metals or finite temperature insulator (S)
elecenergytol        : 0.0000100 ev                             # total energy per atom convergence tolerance (P)
maxscfcycles         : 6000                                     # maximum SCF cycles (I)
spinfix              : 6                                        # number of fixed spin iterations (I)
fixoccupancy         : F                                        # treat system as an insulator (L)
smearingwidth        : 0.1000000 ev                             # width of metal smearing (P)
numdumpcycles        : 0                                        # frequency of wavefunction dumps (I)
mixingscheme         : Pulay                                    # density mixing scheme (S)
mixhistorylength     : 20                                       # number of densities in mixing scheme (I)
mixchargeamp         : 0.5000000                                # charge density mixing amplitude (R)
mixchargegmax        : 1.5000000 1/ang                          # maximum G-vector in charge mixing scheme (P)
mixspinamp           : 2.0000000                                # spin density mixing amplitude (R)
mixspingmax          : 1.5000000 1/ang                          # maximum G-vector in spin mixing scheme (P)
popncalculate        : T                                        # population analysis on/off (L)
popnbondcutoff       : 3.0000000 ang                            # population analysis bond cutoff (P)
pdoscalculateweights : T                                        # partial DOS analysis on/off (L)

 *******************************************************************************
  
 
 Pseudo atomic calculation performed for O 2s2 2p4
 
 Converged in 22 iterations to a total energy of -429.5634 eV
 
 
 Pseudo atomic calculation performed for Zn 3d10 4s2
 
 Converged in 39 iterations to a total energy of -1708.1196 eV
 
Initialising basis set.
 
Standard grid dimensions:  20  20  30
Fine grid dimensions:  20  20  30
 
G-vector group:   1
 X-columns:
Node  Num. Cols.  Num. Fine Cols.  Num Weight. Cols.  Num Fine Weight. Cols.
   1         304              304                 77                      77
   2         296              296                 78                      78
Total        600              600                155                     155
 Y-columns:
Node  Num. Cols.  Num. Fine Cols.  Num Weight. Cols.  Num Fine Weight. Cols.
   1         300              300                170                     170
   2         300              300                170                     170
Total        600              600                340                     340
 Z-columns:
Node  Num. Cols.  Num. Fine Cols.  Num Weight. Cols.  Num Fine Weight. Cols.
   1         200              200                200                     200
   2         200              200                200                     200
Total        400              400                400                     400
 
G-vector group:   2
 X-columns:
Node  Num. Cols.  Num. Fine Cols.  Num Weight. Cols.  Num Fine Weight. Cols.
   1         304              304                 77                      77
   2         296              296                 78                      78
Total        600              600                155                     155
 Y-columns:
Node  Num. Cols.  Num. Fine Cols.  Num Weight. Cols.  Num Fine Weight. Cols.
   1         300              300                170                     170
   2         300              300                170                     170
Total        600              600                340                     340
 Z-columns:
Node  Num. Cols.  Num. Fine Cols.  Num Weight. Cols.  Num Fine Weight. Cols.
   1         200              200                200                     200
   2         200              200                200                     200
Total        400              400                400                     400
 
Plane wave load balancing: max    409 min    389 average    399
True cut-off energy of basis :  13.963
 Calculation parallelised over 4 processes.
 Data is distributed by G-vector(2-way) and k-point(2-way)

 ************************************ Title ************************************
 CASTEP calculation from Materials Studio

 ***************************** General Parameters ******************************
  
 output verbosity                               : extreme (3)
 write checkpoint data to                       : ZnO_LR.check
 type of calculation                            : single point energy
 stress calculation                             : off
 density difference calculation                 : off
 electron localisation func (ELF) calculation   : off
 Hirshfeld analysis                             : on
 unlimited duration calculation
 timing information                             : on
 memory usage estimate                          : on
 write final potential to formatted file        : off
 write final density to formatted file          : off
 write BibTeX reference list                    : on
  
 output         length unit                     : A
 output           mass unit                     : amu
 output           time unit                     : ps
 output         charge unit                     : e
 output         energy unit                     : eV
 output          force unit                     : eV/A
 output       velocity unit                     : A/ps
 output       pressure unit                     : GPa
 output     inv_length unit                     : 1/A
 output      frequency unit                     : cm-1
 output force constant unit                     : eV/A**2
 output         volume unit                     : A**3
 output   IR intensity unit                     : (D/A)**2/amu
 output         dipole unit                     : D
 output         efield unit                     : eV/A/e
 output        entropy unit                     : J/mol/K
  
 wavefunctions paging                           : none
 random number generator seed                   : randomised (114937332)
 data distribution                              : optimal for this architecture
 optimization strategy                          : maximize speed(+++)

 *********************** Exchange-Correlation Parameters ***********************
  
 using functional                               : Perdew Burke Ernzerhof
 Divergence correction                          : off
 DFT+D: Semi-empirical dispersion correction    : off

 ************************* Pseudopotential Parameters **************************
  
 pseudopotential representation                 : reciprocal space
 <beta|phi> representation                      : reciprocal space

 **************************** Basis Set Parameters *****************************
  
 plane wave basis set cut-off                   :   380.0000   eV
 size of standard grid                          :     1.7500
 size of   fine   gmax                          :    17.4771   1/A
 largest prime factor in FFT                    :          5
 finite basis set correction                    : none

 **************************** Electronic Parameters ****************************
  
 number of  electrons                           :  36.00    
 net charge of system                           :  0.000    
 net spin   of system                           :  0.000    
 number of  up  spins                           :  18.00    
 number of down spins                           :  18.00    
 treating system as spin-polarized
 number of bands                                :         36

 ********************* Electronic Minimization Parameters **********************
  
 Method: Treating system as metallic with density mixing treatment of electrons,
         and number of  SD  steps               :          1
         and number of  CG  steps               :          4
  
 total energy / atom convergence tol.           : 0.1000E-04   eV
 eigen-energy convergence tolerance             : 0.1000E-05   eV
 max force / atom convergence tol.              : ignored
 convergence tolerance window                   :          3   cycles
 max. number of SCF cycles                      :       6000
 number of fixed-spin iterations                :          6
 smearing scheme                                : Gaussian
 smearing width                                 : 0.1000       eV
 Fermi energy convergence tolerance             : 0.1000E-06   eV
 periodic dipole correction                     : NONE

 ************************** Density Mixing Parameters **************************
  
 density-mixing scheme                          : Pulay
 max. length of mixing history                  :         20
 charge density mixing amplitude                : 0.5000    
   spin density mixing amplitude                :  2.000    
 cut-off energy for mixing                      :  380.0       eV
 charge density mixing g-vector                 :  1.500       1/A
   spin density mixing g-vector                 :  1.500       1/A

 *********************** Population Analysis Parameters ************************
  
 Population analysis with cutoff                :  3.000       A
 Partial DOS weights calculated

 *******************************************************************************
  
 
                           -------------------------------
                                      Unit Cell
                           -------------------------------
        Real Lattice(A)                      Reciprocal Lattice(1/A)
   2.8139504  -1.6246350   0.0000000        2.2328700   0.0000000   0.0000000
   0.0000000   3.2492700   0.0000000        1.1164350   1.9337221   0.0000000
   0.0000000   0.0000000   5.2054400        0.0000000   0.0000000   1.2070421
 
                       Lattice parameters(A)       Cell Angles
                    a =    3.249270          alpha =   90.000000
                    b =    3.249270          beta  =   90.000000
                    c =    5.205440          gamma =  120.000000
 
                       Current cell volume =   47.594819       A**3
 
                           -------------------------------
                                     Cell Contents
                           -------------------------------
                         Total number of ions in cell =    4
                      Total number of species in cell =    2
                        Max number of any one species =    2
 
            xxxxxxxxxxxxxxxxxxxxxxxxxxxxxxxxxxxxxxxxxxxxxxxxxxxxxxxxxxxx
            x  Element    Atom        Fractional coordinates of atoms  x
            x            Number           u          v          w      x
            x----------------------------------------------------------x
            x  O            1         0.333333   0.666667   0.382600   x
            x  O            2        -0.333333  -0.666667   0.882600   x
            x  Zn           1         0.333333   0.666667   0.000000   x
            x  Zn           2        -0.333333  -0.666667   0.500000   x
            xxxxxxxxxxxxxxxxxxxxxxxxxxxxxxxxxxxxxxxxxxxxxxxxxxxxxxxxxxxx
 
 
                         No user defined ionic velocities
 
                           -------------------------------
                                   Details of Species
                           -------------------------------
 
                               Mass of species in AMU
                                    O   15.9989996
                                    Zn   65.3799973
 
                          Electric Quadrupole Moment (Barn)
                                    O   -0.0255800 Isotope 17
                                    Zn    0.1500000 Isotope 67


         Quantisation axis:    0.00000   0.00000   1.00000

         Units for Hubbard U values are eV
         xxxxxxxxxxxxxxxxxxxxxxxxxxxxxxxxxxxxxxxxxxxxxxxxxxxxxxxxxxxxxxxxxxxx
         |  Element     Atom     Hubbard U   values by orbital type         |
         |             Number      s          p          d          f       |
         |------------------------------------------------------------------|
         |O             1         0.00000    2.00000    0.00000    0.00000  |
         |O             2         0.00000    2.00000    0.00000    0.00000  |
         |Zn            1         0.00000    0.00000    2.00000    0.00000  |
         |Zn            2         0.00000    0.00000    2.00000    0.00000  |
         xxxxxxxxxxxxxxxxxxxxxxxxxxxxxxxxxxxxxxxxxxxxxxxxxxxxxxxxxxxxxxxxxxxx
 
 
                          Files used for pseudopotentials:
                                    O O_00PBE.usp
                                    Zn Zn_00PBE.usp
 
                           -------------------------------
                              k-Points For BZ Sampling
                           -------------------------------
                       MP grid size for SCF calculation is  5  5  4
                         Number of kpoints used =          10
 
             +++++++++++++++++++++++++++++++++++++++++++++++++++++++
             +  Number       Fractional coordinates        Weight  +
             +-----------------------------------------------------+
             +     1   0.400000   0.400000   0.375000   0.1200000  +
             +     2   0.400000   0.400000   0.125000   0.1200000  +
             +     3   0.400000   0.000000   0.375000   0.1200000  +
             +     4   0.400000   0.000000   0.125000   0.1200000  +
             +     5   0.400000  -0.200000   0.375000   0.1200000  +
             +     6   0.400000  -0.200000   0.125000   0.1200000  +
             +     7   0.200000   0.000000   0.375000   0.1200000  +
             +     8   0.200000   0.000000   0.125000   0.1200000  +
             +     9   0.000000   0.000000   0.375000   0.0200000  +
             +    10   0.000000   0.000000   0.125000   0.0200000  +
             +++++++++++++++++++++++++++++++++++++++++++++++++++++++
 
                           -------------------------------
                               Symmetry and Constraints
                           -------------------------------
 
                      Number of symmetry operations   =          12
         There are no ionic constraints specified or generated for this cell
                      Maximum deviation from symmetry = 0.144297E-14     ANG
               Point group of crystal =    25: C6v, 6mm, 6 m m
                    1 rotation    
                 (   1.00000000000   0.00000000000   0.00000000000 )
                 (   0.00000000000   1.00000000000   0.00000000000 )
                 (   0.00000000000   0.00000000000   1.00000000000 )
                    1 displacement
                 (   0.00000000000   0.00000000000   0.00000000000 )
                      symmetry related atoms: 
             O:    1    2
             Zn:    1    2
 
                    2 rotation    
                 (  -0.50000000000   0.86602540378   0.00000000000 )
                 (  -0.86602540378  -0.50000000000   0.00000000000 )
                 (   0.00000000000   0.00000000000   1.00000000000 )
                    2 displacement
                 (   0.00000000000   0.00000000000   0.00000000000 )
                      symmetry related atoms: 
             O:    1    2
             Zn:    1    2
 
                    3 rotation    
                 (  -0.50000000000  -0.86602540378   0.00000000000 )
                 (   0.86602540378  -0.50000000000   0.00000000000 )
                 (   0.00000000000   0.00000000000   1.00000000000 )
                    3 displacement
                 (   0.00000000000   0.00000000000   0.00000000000 )
                      symmetry related atoms: 
             O:    1    2
             Zn:    1    2
 
                    4 rotation    
                 (  -1.00000000000   0.00000000000   0.00000000000 )
                 (   0.00000000000  -1.00000000000   0.00000000000 )
                 (   0.00000000000   0.00000000000   1.00000000000 )
                    4 displacement
                 (   0.00000000000   0.00000000000   0.50000000000 )
                      symmetry related atoms: 
             O:    2    1
             Zn:    2    1
 
                    5 rotation    
                 (   0.50000000000  -0.86602540378   0.00000000000 )
                 (   0.86602540378   0.50000000000   0.00000000000 )
                 (   0.00000000000   0.00000000000   1.00000000000 )
                    5 displacement
                 (   0.00000000000   0.00000000000   0.50000000000 )
                      symmetry related atoms: 
             O:    2    1
             Zn:    2    1
 
                    6 rotation    
                 (   0.50000000000   0.86602540378   0.00000000000 )
                 (  -0.86602540378   0.50000000000   0.00000000000 )
                 (   0.00000000000   0.00000000000   1.00000000000 )
                    6 displacement
                 (   0.00000000000   0.00000000000   0.50000000000 )
                      symmetry related atoms: 
             O:    2    1
             Zn:    2    1
 
                    7 rotation    
                 (  -0.50000000000  -0.86602540378   0.00000000000 )
                 (  -0.86602540378   0.50000000000   0.00000000000 )
                 (   0.00000000000   0.00000000000   1.00000000000 )
                    7 displacement
                 (   0.00000000000   0.00000000000   0.00000000000 )
                      symmetry related atoms: 
             O:    1    2
             Zn:    1    2
 
                    8 rotation    
                 (  -0.50000000000   0.86602540378   0.00000000000 )
                 (   0.86602540378   0.50000000000   0.00000000000 )
                 (   0.00000000000   0.00000000000   1.00000000000 )
                    8 displacement
                 (   0.00000000000   0.00000000000   0.00000000000 )
                      symmetry related atoms: 
             O:    1    2
             Zn:    1    2
 
                    9 rotation    
                 (   1.00000000000   0.00000000000   0.00000000000 )
                 (   0.00000000000  -1.00000000000   0.00000000000 )
                 (   0.00000000000   0.00000000000   1.00000000000 )
                    9 displacement
                 (   0.00000000000   0.00000000000   0.00000000000 )
                      symmetry related atoms: 
             O:    1    2
             Zn:    1    2
 
                   10 rotation    
                 (   0.50000000000   0.86602540378   0.00000000000 )
                 (   0.86602540378  -0.50000000000   0.00000000000 )
                 (   0.00000000000   0.00000000000   1.00000000000 )
                   10 displacement
                 (   0.00000000000   0.00000000000   0.50000000000 )
                      symmetry related atoms: 
             O:    2    1
             Zn:    2    1
 
                   11 rotation    
                 (   0.50000000000  -0.86602540378   0.00000000000 )
                 (  -0.86602540378  -0.50000000000   0.00000000000 )
                 (   0.00000000000   0.00000000000   1.00000000000 )
                   11 displacement
                 (   0.00000000000   0.00000000000   0.50000000000 )
                      symmetry related atoms: 
             O:    2    1
             Zn:    2    1
 
                   12 rotation    
                 (  -1.00000000000  -0.00000000000   0.00000000000 )
                 (   0.00000000000   1.00000000000   0.00000000000 )
                 (   0.00000000000   0.00000000000   1.00000000000 )
                   12 displacement
                 (   0.00000000000   0.00000000000   0.50000000000 )
                      symmetry related atoms: 
             O:    2    1
             Zn:    2    1
 
 
                        Centre of mass is NOT constrained
                       No ionic constraints specified
 
                         Number of cell constraints= 4
                         Cell constraints are:  1 1 3 0 0 0
 
                         External pressure/stress (GPa)
                          0.00000   0.00000   0.00000
                                    0.00000   0.00000
                                              0.00000
  
+---------------- MEMORY AND SCRATCH DISK ESTIMATES PER NODE -----------------+
|                                                     Memory          Disk    |
| Model and support data                               36.3 MB         0.0 MB |
| Electronic energy minimisation requirements           6.1 MB         0.0 MB |
|                                               ----------------------------- |
| Approx. total storage required per node              42.3 MB         0.0 MB |
|                                                                             |
| Requirements will fluctuate during execution and may exceed these estimates |
+-----------------------------------------------------------------------------+
electronic_minimisation: Initialising
 
 Pseudo atomic calculation performed for O 2s2 2p4
 
 Converged in 22 iterations to a total energy of -429.5634 eV
 
 
 Pseudo atomic calculation performed for Zn 3d10 4s2
 
 Converged in 39 iterations to a total energy of -1708.1196 eV
 
  Initializing lda+u occ matrix: 
 
     LDA+U occupation numbers
     ------------------------
Species   Ion   l  spin               occupancies
==================================================================
 -------------------------------------------
 Channel            1  and spin            1  :
 -------------------------------------------
 Density matrix
     0.000     0.000     0.000
     0.000     0.000     0.000
     0.000     0.000     0.000
     0.000     0.000     0.000
     0.000     0.000     0.000
     0.000     0.000     0.000
           1           1 Total:   0.000000000000000E+000  Mz:
  0.000000000000000E+000
 -------------------------------------------
 Matrix of eigenvectors
occupation :   PX        PY        PZ        
     0.000 :       1.00      0.00      0.00
           :       0.00      0.00      0.00
     0.000 :       0.00      1.00      0.00
           :       0.00      0.00      0.00
     0.000 :       0.00      0.00      1.00
           :       0.00      0.00      0.00
 ->>---------------------------------------<<-
 -------------------------------------------
 Channel            1  and spin            2  :
 -------------------------------------------
 Density matrix
     0.000     0.000     0.000
     0.000     0.000     0.000
     0.000     0.000     0.000
     0.000     0.000     0.000
     0.000     0.000     0.000
     0.000     0.000     0.000
           1           2 Total:   0.000000000000000E+000  Mz:
  0.000000000000000E+000
 -------------------------------------------
 Matrix of eigenvectors
occupation :   PX        PY        PZ        
     0.000 :       1.00      0.00      0.00
           :       0.00      0.00      0.00
     0.000 :       0.00      1.00      0.00
           :       0.00      0.00      0.00
     0.000 :       0.00      0.00      1.00
           :       0.00      0.00      0.00
 ->>---------------------------------------<<-
  O        1    1   up:   0.00  0.00  0.00
                    dn:   0.00  0.00  0.00
 -------------------------------------------
 Channel            2  and spin            1  :
 -------------------------------------------
 Density matrix
     0.000     0.000     0.000
     0.000     0.000     0.000
     0.000     0.000     0.000
     0.000     0.000     0.000
     0.000     0.000     0.000
     0.000     0.000     0.000
           2           1 Total:   0.000000000000000E+000  Mz:
  0.000000000000000E+000
 -------------------------------------------
 Matrix of eigenvectors
occupation :   PX        PY        PZ        
     0.000 :       1.00      0.00      0.00
           :       0.00      0.00      0.00
     0.000 :       0.00      1.00      0.00
           :       0.00      0.00      0.00
     0.000 :       0.00      0.00      1.00
           :       0.00      0.00      0.00
 ->>---------------------------------------<<-
 -------------------------------------------
 Channel            2  and spin            2  :
 -------------------------------------------
 Density matrix
     0.000     0.000     0.000
     0.000     0.000     0.000
     0.000     0.000     0.000
     0.000     0.000     0.000
     0.000     0.000     0.000
     0.000     0.000     0.000
           2           2 Total:   0.000000000000000E+000  Mz:
  0.000000000000000E+000
 -------------------------------------------
 Matrix of eigenvectors
occupation :   PX        PY        PZ        
     0.000 :       1.00      0.00      0.00
           :       0.00      0.00      0.00
     0.000 :       0.00      1.00      0.00
           :       0.00      0.00      0.00
     0.000 :       0.00      0.00      1.00
           :       0.00      0.00      0.00
 ->>---------------------------------------<<-
  O        2    1   up:   0.00  0.00  0.00
                    dn:   0.00  0.00  0.00
 -------------------------------------------
 Channel            3  and spin            1  :
 -------------------------------------------
 Density matrix
     1.000     0.000     0.000     0.000     0.000
     0.000     0.000     0.000     0.000     0.000
     0.000     1.000     0.000     0.000     0.000
     0.000     0.000     0.000     0.000     0.000
     0.000     0.000     1.000     0.000     0.000
     0.000     0.000     0.000     0.000     0.000
     0.000     0.000     0.000     1.000     0.000
     0.000     0.000     0.000     0.000     0.000
     0.000     0.000     0.000     0.000     1.000
     0.000     0.000     0.000     0.000     0.000
           3           1 Total:    5.00000000000000       Mz:
  0.000000000000000E+000
 -------------------------------------------
 Matrix of eigenvectors
occupation :   DZZ       DZY       DZX       DXX-YY    DXY       
     1.000 :       1.00      0.00      0.00      0.00      0.00
           :       0.00      0.00      0.00      0.00      0.00
     1.000 :       0.00      1.00      0.00      0.00      0.00
           :       0.00      0.00      0.00      0.00      0.00
     1.000 :       0.00      0.00      1.00      0.00      0.00
           :       0.00      0.00      0.00      0.00      0.00
     1.000 :       0.00      0.00      0.00      1.00      0.00
           :       0.00      0.00      0.00      0.00      0.00
     1.000 :       0.00      0.00      0.00      0.00      1.00
           :       0.00      0.00      0.00      0.00      0.00
 ->>---------------------------------------<<-
 -------------------------------------------
 Channel            3  and spin            2  :
 -------------------------------------------
 Density matrix
     1.000     0.000     0.000     0.000     0.000
     0.000     0.000     0.000     0.000     0.000
     0.000     1.000     0.000     0.000     0.000
     0.000     0.000     0.000     0.000     0.000
     0.000     0.000     1.000     0.000     0.000
     0.000     0.000     0.000     0.000     0.000
     0.000     0.000     0.000     1.000     0.000
     0.000     0.000     0.000     0.000     0.000
     0.000     0.000     0.000     0.000     1.000
     0.000     0.000     0.000     0.000     0.000
           3           2 Total:    5.00000000000000       Mz:
  0.000000000000000E+000
 -------------------------------------------
 Matrix of eigenvectors
occupation :   DZZ       DZY       DZX       DXX-YY    DXY       
     1.000 :       1.00      0.00      0.00      0.00      0.00
           :       0.00      0.00      0.00      0.00      0.00
     1.000 :       0.00      1.00      0.00      0.00      0.00
           :       0.00      0.00      0.00      0.00      0.00
     1.000 :       0.00      0.00      1.00      0.00      0.00
           :       0.00      0.00      0.00      0.00      0.00
     1.000 :       0.00      0.00      0.00      1.00      0.00
           :       0.00      0.00      0.00      0.00      0.00
     1.000 :       0.00      0.00      0.00      0.00      1.00
           :       0.00      0.00      0.00      0.00      0.00
 ->>---------------------------------------<<-
  Zn       1    2   up:   1.00  1.00  1.00  1.00  1.00
                    dn:   1.00  1.00  1.00  1.00  1.00
 -------------------------------------------
 Channel            4  and spin            1  :
 -------------------------------------------
 Density matrix
     1.000     0.000     0.000     0.000     0.000
     0.000     0.000     0.000     0.000     0.000
     0.000     1.000     0.000     0.000     0.000
     0.000     0.000     0.000     0.000     0.000
     0.000     0.000     1.000     0.000     0.000
     0.000     0.000     0.000     0.000     0.000
     0.000     0.000     0.000     1.000     0.000
     0.000     0.000     0.000     0.000     0.000
     0.000     0.000     0.000     0.000     1.000
     0.000     0.000     0.000     0.000     0.000
           4           1 Total:    5.00000000000000       Mz:
  0.000000000000000E+000
 -------------------------------------------
 Matrix of eigenvectors
occupation :   DZZ       DZY       DZX       DXX-YY    DXY       
     1.000 :       1.00      0.00      0.00      0.00      0.00
           :       0.00      0.00      0.00      0.00      0.00
     1.000 :       0.00      1.00      0.00      0.00      0.00
           :       0.00      0.00      0.00      0.00      0.00
     1.000 :       0.00      0.00      1.00      0.00      0.00
           :       0.00      0.00      0.00      0.00      0.00
     1.000 :       0.00      0.00      0.00      1.00      0.00
           :       0.00      0.00      0.00      0.00      0.00
     1.000 :       0.00      0.00      0.00      0.00      1.00
           :       0.00      0.00      0.00      0.00      0.00
 ->>---------------------------------------<<-
 -------------------------------------------
 Channel            4  and spin            2  :
 -------------------------------------------
 Density matrix
     1.000     0.000     0.000     0.000     0.000
     0.000     0.000     0.000     0.000     0.000
     0.000     1.000     0.000     0.000     0.000
     0.000     0.000     0.000     0.000     0.000
     0.000     0.000     1.000     0.000     0.000
     0.000     0.000     0.000     0.000     0.000
     0.000     0.000     0.000     1.000     0.000
     0.000     0.000     0.000     0.000     0.000
     0.000     0.000     0.000     0.000     1.000
     0.000     0.000     0.000     0.000     0.000
           4           2 Total:    5.00000000000000       Mz:
  0.000000000000000E+000
 -------------------------------------------
 Matrix of eigenvectors
occupation :   DZZ       DZY       DZX       DXX-YY    DXY       
     1.000 :       1.00      0.00      0.00      0.00      0.00
           :       0.00      0.00      0.00      0.00      0.00
     1.000 :       0.00      1.00      0.00      0.00      0.00
           :       0.00      0.00      0.00      0.00      0.00
     1.000 :       0.00      0.00      1.00      0.00      0.00
           :       0.00      0.00      0.00      0.00      0.00
     1.000 :       0.00      0.00      0.00      1.00      0.00
           :       0.00      0.00      0.00      0.00      0.00
     1.000 :       0.00      0.00      0.00      0.00      1.00
           :       0.00      0.00      0.00      0.00      0.00
 ->>---------------------------------------<<-
  Zn       2    2   up:   1.00  1.00  1.00  1.00  1.00
                    dn:   1.00  1.00  1.00  1.00  1.00
==================================================================
 
electronic_minimisation: Initialising density mixing
 Initialising mixing density basis set.
Density mixing plane wave load balancing: max    400 min    385 average    392
Calculating Ewald energy for ionic configuration
              Ewald: real-space energy =     505.509509 eV
        Ewald: reciprocal-space energy =      34.906030 eV
         Ewald: (sum_charge)**2 Energy =    1785.253115 eV
         Ewald: (sum_charge**2) Energy =    1717.860611 eV
                          Ewald Energy =   -2962.698188 eV
Calculating non-Coulombic energy for ionic configuration
Symmetrising density
Calculating local potential
Calculating Hubbard U potential
 Density matrix in cubic harmonics:
     0.0000     0.0000     0.0000
     0.0000     0.0000     0.0000
     0.0000     0.0000     0.0000
     0.0000     0.0000     0.0000
     0.0000     0.0000     0.0000
     0.0000     0.0000     0.0000
 Hermiticity: (0.000000000000000E+000,0.000000000000000E+000)
 Density matrix in cubic harmonics:
     0.0000     0.0000     0.0000
     0.0000     0.0000     0.0000
     0.0000     0.0000     0.0000
     0.0000     0.0000     0.0000
     0.0000     0.0000     0.0000
     0.0000     0.0000     0.0000
 Hermiticity: (0.000000000000000E+000,0.000000000000000E+000)
 Density matrix in cubic harmonics:
     0.0000     0.0000     0.0000
     0.0000     0.0000     0.0000
     0.0000     0.0000     0.0000
     0.0000     0.0000     0.0000
     0.0000     0.0000     0.0000
     0.0000     0.0000     0.0000
 Hermiticity: (0.000000000000000E+000,0.000000000000000E+000)
 Density matrix in cubic harmonics:
     0.0000     0.0000     0.0000
     0.0000     0.0000     0.0000
     0.0000     0.0000     0.0000
     0.0000     0.0000     0.0000
     0.0000     0.0000     0.0000
     0.0000     0.0000     0.0000
 Hermiticity: (0.000000000000000E+000,0.000000000000000E+000)
 Density matrix in cubic harmonics:
     1.0000     0.0000     0.0000     0.0000     0.0000
     0.0000     0.0000     0.0000     0.0000     0.0000
     0.0000     1.0000     0.0000     0.0000     0.0000
     0.0000     0.0000     0.0000     0.0000     0.0000
     0.0000     0.0000     1.0000     0.0000     0.0000
     0.0000     0.0000     0.0000     0.0000     0.0000
     0.0000     0.0000     0.0000     1.0000     0.0000
     0.0000     0.0000     0.0000     0.0000     0.0000
     0.0000     0.0000     0.0000     0.0000     1.0000
     0.0000     0.0000     0.0000     0.0000     0.0000
 Hermiticity: (-8.881784197001252E-016,0.000000000000000E+000)
 Density matrix in cubic harmonics:
     1.0000     0.0000     0.0000     0.0000     0.0000
     0.0000     0.0000     0.0000     0.0000     0.0000
     0.0000     1.0000     0.0000     0.0000     0.0000
     0.0000     0.0000     0.0000     0.0000     0.0000
     0.0000     0.0000     1.0000     0.0000     0.0000
     0.0000     0.0000     0.0000     0.0000     0.0000
     0.0000     0.0000     0.0000     1.0000     0.0000
     0.0000     0.0000     0.0000     0.0000     0.0000
     0.0000     0.0000     0.0000     0.0000     1.0000
     0.0000     0.0000     0.0000     0.0000     0.0000
 Hermiticity: (-8.881784197001252E-016,0.000000000000000E+000)
 Density matrix in cubic harmonics:
     1.0000     0.0000     0.0000     0.0000     0.0000
     0.0000     0.0000     0.0000     0.0000     0.0000
     0.0000     1.0000     0.0000     0.0000     0.0000
     0.0000     0.0000     0.0000     0.0000     0.0000
     0.0000     0.0000     1.0000     0.0000     0.0000
     0.0000     0.0000     0.0000     0.0000     0.0000
     0.0000     0.0000     0.0000     1.0000     0.0000
     0.0000     0.0000     0.0000     0.0000     0.0000
     0.0000     0.0000     0.0000     0.0000     1.0000
     0.0000     0.0000     0.0000     0.0000     0.0000
 Hermiticity: (-8.881784197001252E-016,0.000000000000000E+000)
 Density matrix in cubic harmonics:
     1.0000     0.0000     0.0000     0.0000     0.0000
     0.0000     0.0000     0.0000     0.0000     0.0000
     0.0000     1.0000     0.0000     0.0000     0.0000
     0.0000     0.0000     0.0000     0.0000     0.0000
     0.0000     0.0000     1.0000     0.0000     0.0000
     0.0000     0.0000     0.0000     0.0000     0.0000
     0.0000     0.0000     0.0000     1.0000     0.0000
     0.0000     0.0000     0.0000     0.0000     0.0000
     0.0000     0.0000     0.0000     0.0000     1.0000
     0.0000     0.0000     0.0000     0.0000     0.0000
 Hermiticity: (-8.881784197001252E-016,0.000000000000000E+000)
Calculating non-local weights
Calculating KE and non-local eigenvalues to find total energy
 
Init
Exchange-correlation energy      =      -686.10096053131337612 eV
+Hartree energy                  =      1581.37966578793020744 eV
+Local pseudopotential energy    =     -4163.10634761334586074 eV
----------------------------------
Potential energy (total)         =     -3267.82764235672493669 eV
                                  
+Hubbard energy                  =        -0.00000000000000355 eV
+Kinetic energy                  =      1886.52980527518320741 eV
+Non-local energy                =       138.56165863533792049 eV
+Electronic entropy term (-TS)   =         0.00000000000000000 eV
+Ewald energy (const)            =     -2962.69818790879116932 eV
+non-Coulombic energy (const)    =       129.81585099920536663 eV
----------------------------------
Total free energy (E-TS)         =     -4075.61851535578989569 eV
 
NB est. 0K energy (E-0.5TS)      =     -4075.61851535578989569 eV
 
(XC correction to eigenvalue sum =       207.52878085959514465 eV)
(LDA+U correction to eigenvalue su        20.00000000000000355 eV)
 
------------------------------------------------------------------------ <-- SCF
SCF loop      Energy           Fermi           Energy gain       Timer   <-- SCF
                               energy          per atom          (sec)   <-- SCF
------------------------------------------------------------------------ <-- SCF
Initial  -4.07561852E+003  0.00000000E+000                         0.75  <-- SCF
Starting SCF cycle     1 of up to  6000
 no. bands in each block=          12
 Calculating the R matrix for the precon Sinv operator
 Diagonalising expanded subspace
 Copying updated data back
eigenvalue    1 init=  15.34     fin= -10.48     change=  25.82    
eigenvalue    2 init=  18.15     fin= -5.280     change=  23.43    
eigenvalue    3 init=  20.71     fin=  1.124     change=  19.59    
eigenvalue    4 init=  22.70     fin=  2.395     change=  20.31    
eigenvalue    5 init=  25.00     fin=  2.668     change=  22.33    
eigenvalue    6 init=  26.43     fin=  3.626     change=  22.80    
eigenvalue    7 init=  27.99     fin=  4.478     change=  23.51    
eigenvalue    8 init=  28.66     fin=  6.129     change=  22.53    
eigenvalue    9 init=  29.13     fin=  8.071     change=  21.06    
eigenvalue   10 init=  31.04     fin=  9.832     change=  21.21    
eigenvalue   11 init=  32.51     fin=  11.75     change=  20.76    
eigenvalue   12 init=  33.28     fin=  14.01     change=  19.28    
 Checking convergence criteria
 Diagonalising expanded subspace
 Copying updated data back
eigenvalue    1 init=  15.34     fin= -13.64     change=  28.98    
eigenvalue    2 init=  18.15     fin= -10.51     change=  28.66    
eigenvalue    3 init=  20.71     fin= -.7454     change=  21.46    
eigenvalue    4 init=  22.70     fin= -.3089     change=  23.01    
eigenvalue    5 init=  25.00     fin= 0.5477     change=  24.45    
eigenvalue    6 init=  26.43     fin=  1.326     change=  25.10    
eigenvalue    7 init=  27.99     fin=  1.750     change=  26.24    
eigenvalue    8 init=  28.66     fin=  2.269     change=  26.39    
eigenvalue    9 init=  29.13     fin=  3.895     change=  25.24    
eigenvalue   10 init=  31.04     fin=  4.923     change=  26.12    
eigenvalue   11 init=  32.51     fin=  7.400     change=  25.11    
eigenvalue   12 init=  33.28     fin=  9.326     change=  23.96    
 Checking convergence criteria
 Diagonalising expanded subspace
 Copying updated data back
eigenvalue   13 init=  34.52     fin=  3.428     change=  31.09    
eigenvalue   14 init=  36.29     fin=  5.398     change=  30.89    
eigenvalue   15 init=  37.15     fin=  10.22     change=  26.93    
eigenvalue   16 init=  39.11     fin=  10.72     change=  28.40    
eigenvalue   17 init=  42.25     fin=  14.83     change=  27.42    
eigenvalue   18 init=  43.26     fin=  15.93     change=  27.33    
eigenvalue   19 init=  44.34     fin=  18.14     change=  26.20    
eigenvalue   20 init=  45.49     fin=  20.76     change=  24.74    
eigenvalue   21 init=  46.03     fin=  22.94     change=  23.09    
eigenvalue   22 init=  47.80     fin=  25.48     change=  22.32    
eigenvalue   23 init=  49.05     fin=  27.64     change=  21.41    
eigenvalue   24 init=  50.27     fin=  31.51     change=  18.76    
 Checking convergence criteria
 Diagonalising expanded subspace
 Copying updated data back
eigenvalue   13 init=  34.52     fin= -1.449     change=  35.97    
eigenvalue   14 init=  36.29     fin= -.4366     change=  36.73    
eigenvalue   15 init=  37.15     fin=  1.312     change=  35.84    
eigenvalue   16 init=  39.11     fin=  1.723     change=  37.39    
eigenvalue   17 init=  42.25     fin=  3.799     change=  38.45    
eigenvalue   18 init=  43.26     fin=  7.266     change=  35.99    
eigenvalue   19 init=  44.34     fin=  10.98     change=  33.37    
eigenvalue   20 init=  45.49     fin=  11.72     change=  33.77    
eigenvalue   21 init=  46.03     fin=  13.85     change=  32.18    
eigenvalue   22 init=  47.80     fin=  15.22     change=  32.58    
eigenvalue   23 init=  49.05     fin=  21.35     change=  27.70    
eigenvalue   24 init=  50.27     fin=  23.39     change=  26.88    
 Checking convergence criteria
 Diagonalising expanded subspace
 Copying updated data back
eigenvalue   13 init=  34.52     fin= -2.175     change=  36.70    
eigenvalue   14 init=  36.29     fin= -.9490     change=  37.24    
eigenvalue   15 init=  37.15     fin= -.1109     change=  37.26    
eigenvalue   16 init=  39.11     fin= 0.3602     change=  38.75    
eigenvalue   17 init=  42.25     fin=  1.601     change=  40.64    
eigenvalue   18 init=  43.26     fin=  3.892     change=  39.37    
eigenvalue   19 init=  44.34     fin=  9.289     change=  35.05    
eigenvalue   20 init=  45.49     fin=  10.10     change=  35.40    
eigenvalue   21 init=  46.03     fin=  11.33     change=  34.70    
eigenvalue   22 init=  47.80     fin=  12.67     change=  35.13    
eigenvalue   23 init=  49.05     fin=  17.23     change=  31.82    
eigenvalue   24 init=  50.27     fin=  20.01     change=  30.26    
 Checking convergence criteria
 Diagonalising expanded subspace
 Copying updated data back
eigenvalue   25 init=  52.84     fin=  20.74     change=  32.10    
eigenvalue   26 init=  53.22     fin=  24.90     change=  28.32    
eigenvalue   27 init=  54.63     fin=  26.07     change=  28.56    
eigenvalue   28 init=  55.81     fin=  30.70     change=  25.11    
eigenvalue   29 init=  57.64     fin=  33.02     change=  24.61    
eigenvalue   30 init=  58.89     fin=  35.01     change=  23.88    
eigenvalue   31 init=  61.42     fin=  38.87     change=  22.56    
eigenvalue   32 init=  62.91     fin=  40.25     change=  22.66    
eigenvalue   33 init=  64.71     fin=  41.82     change=  22.89    
eigenvalue   34 init=  66.14     fin=  43.99     change=  22.15    
eigenvalue   35 init=  68.25     fin=  46.65     change=  21.59    
eigenvalue   36 init=  70.01     fin=  47.78     change=  22.23    
 Checking convergence criteria
 Diagonalising expanded subspace
 Copying updated data back
eigenvalue   25 init=  52.84     fin=  11.00     change=  41.84    
eigenvalue   26 init=  53.22     fin=  12.40     change=  40.82    
eigenvalue   27 init=  54.63     fin=  16.58     change=  38.04    
eigenvalue   28 init=  55.81     fin=  21.69     change=  34.13    
eigenvalue   29 init=  57.64     fin=  24.33     change=  33.31    
eigenvalue   30 init=  58.89     fin=  26.76     change=  32.13    
eigenvalue   31 init=  61.42     fin=  29.44     change=  31.98    
eigenvalue   32 init=  62.91     fin=  32.63     change=  30.28    
eigenvalue   33 init=  64.71     fin=  34.12     change=  30.59    
eigenvalue   34 init=  66.14     fin=  34.65     change=  31.49    
eigenvalue   35 init=  68.25     fin=  36.80     change=  31.44    
eigenvalue   36 init=  70.01     fin=  38.44     change=  31.57    
 Checking convergence criteria
 Diagonalising expanded subspace
 Copying updated data back
eigenvalue   25 init=  52.84     fin=  9.933     change=  42.91    
eigenvalue   26 init=  53.22     fin=  10.91     change=  42.31    
eigenvalue   27 init=  54.63     fin=  15.12     change=  39.51    
eigenvalue   28 init=  55.81     fin=  18.30     change=  37.51    
eigenvalue   29 init=  57.64     fin=  22.33     change=  35.31    
eigenvalue   30 init=  58.89     fin=  24.48     change=  34.41    
eigenvalue   31 init=  61.42     fin=  26.70     change=  34.73    
eigenvalue   32 init=  62.91     fin=  28.02     change=  34.89    
eigenvalue   33 init=  64.71     fin=  29.81     change=  34.90    
eigenvalue   34 init=  66.14     fin=  30.81     change=  35.33    
eigenvalue   35 init=  68.25     fin=  32.42     change=  35.83    
eigenvalue   36 init=  70.01     fin=  34.50     change=  35.51    
 Checking convergence criteria
 no. bands in each block=          12
 Calculating the R matrix for the precon Sinv operator
 Diagonalising expanded subspace
 Copying updated data back
eigenvalue    1 init=  14.07     fin= -12.08     change=  26.16    
eigenvalue    2 init=  16.14     fin= -9.280     change=  25.42    
eigenvalue    3 init=  20.03     fin=  1.134     change=  18.90    
eigenvalue    4 init=  22.04     fin=  2.839     change=  19.21    
eigenvalue    5 init=  22.97     fin=  3.511     change=  19.46    
eigenvalue    6 init=  25.39     fin=  4.076     change=  21.31    
eigenvalue    7 init=  27.29     fin=  4.599     change=  22.69    
eigenvalue    8 init=  27.71     fin=  7.053     change=  20.66    
eigenvalue    9 init=  28.84     fin=  8.771     change=  20.07    
eigenvalue   10 init=  30.27     fin=  10.26     change=  20.01    
eigenvalue   11 init=  31.12     fin=  11.36     change=  19.76    
eigenvalue   12 init=  33.82     fin=  15.31     change=  18.50    
 Checking convergence criteria
 Diagonalising expanded subspace
 Copying updated data back
eigenvalue    1 init=  14.07     fin= -14.64     change=  28.72    
eigenvalue    2 init=  16.14     fin= -13.62     change=  29.76    
eigenvalue    3 init=  20.03     fin= -1.160     change=  21.19    
eigenvalue    4 init=  22.04     fin= 0.2481     change=  21.80    
eigenvalue    5 init=  22.97     fin= 0.6690     change=  22.30    
eigenvalue    6 init=  25.39     fin=  1.190     change=  24.20    
eigenvalue    7 init=  27.29     fin=  2.059     change=  25.23    
eigenvalue    8 init=  27.71     fin=  2.826     change=  24.88    
eigenvalue    9 init=  28.84     fin=  4.445     change=  24.40    
eigenvalue   10 init=  30.27     fin=  5.789     change=  24.48    
eigenvalue   11 init=  31.12     fin=  7.286     change=  23.83    
eigenvalue   12 init=  33.82     fin=  9.969     change=  23.85    
 Checking convergence criteria
 Diagonalising expanded subspace
 Copying updated data back
eigenvalue   13 init=  35.59     fin=  4.512     change=  31.08    
eigenvalue   14 init=  37.94     fin=  7.772     change=  30.16    
eigenvalue   15 init=  38.25     fin=  8.751     change=  29.50    
eigenvalue   16 init=  39.01     fin=  11.08     change=  27.93    
eigenvalue   17 init=  40.23     fin=  13.89     change=  26.35    
eigenvalue   18 init=  41.41     fin=  17.23     change=  24.18    
eigenvalue   19 init=  42.88     fin=  21.44     change=  21.44    
eigenvalue   20 init=  44.12     fin=  22.54     change=  21.58    
eigenvalue   21 init=  45.32     fin=  23.61     change=  21.71    
eigenvalue   22 init=  47.91     fin=  24.53     change=  23.38    
eigenvalue   23 init=  48.63     fin=  27.90     change=  20.73    
eigenvalue   24 init=  49.88     fin=  30.79     change=  19.09    
 Checking convergence criteria
 Diagonalising expanded subspace
 Copying updated data back
eigenvalue   13 init=  35.59     fin= -.1534     change=  35.74    
eigenvalue   14 init=  37.94     fin= 0.8874     change=  37.05    
eigenvalue   15 init=  38.25     fin=  2.130     change=  36.12    
eigenvalue   16 init=  39.01     fin=  3.797     change=  35.21    
eigenvalue   17 init=  40.23     fin=  4.931     change=  35.30    
eigenvalue   18 init=  41.41     fin=  8.782     change=  32.63    
eigenvalue   19 init=  42.88     fin=  9.577     change=  33.30    
eigenvalue   20 init=  44.12     fin=  10.94     change=  33.18    
eigenvalue   21 init=  45.32     fin=  12.71     change=  32.61    
eigenvalue   22 init=  47.91     fin=  16.83     change=  31.08    
eigenvalue   23 init=  48.63     fin=  19.94     change=  28.69    
eigenvalue   24 init=  49.88     fin=  21.61     change=  28.27    
 Checking convergence criteria
 Diagonalising expanded subspace
 Copying updated data back
eigenvalue   13 init=  35.59     fin= -.7982     change=  36.39    
eigenvalue   14 init=  37.94     fin= 0.3496     change=  37.59    
eigenvalue   15 init=  38.25     fin=  1.017     change=  37.23    
eigenvalue   16 init=  39.01     fin=  2.323     change=  36.68    
eigenvalue   17 init=  40.23     fin=  2.971     change=  37.26    
eigenvalue   18 init=  41.41     fin=  6.167     change=  35.24    
eigenvalue   19 init=  42.88     fin=  7.192     change=  35.69    
eigenvalue   20 init=  44.12     fin=  8.100     change=  36.02    
eigenvalue   21 init=  45.32     fin=  9.467     change=  35.85    
eigenvalue   22 init=  47.91     fin=  12.11     change=  35.80    
eigenvalue   23 init=  48.63     fin=  15.69     change=  32.95    
eigenvalue   24 init=  49.88     fin=  17.40     change=  32.48    
 Checking convergence criteria
 Diagonalising expanded subspace
 Copying updated data back
eigenvalue   25 init=  50.73     fin=  17.91     change=  32.82    
eigenvalue   26 init=  52.18     fin=  24.67     change=  27.51    
eigenvalue   27 init=  53.16     fin=  26.39     change=  26.78    
eigenvalue   28 init=  54.49     fin=  28.31     change=  26.18    
eigenvalue   29 init=  55.44     fin=  31.20     change=  24.24    
eigenvalue   30 init=  56.83     fin=  34.45     change=  22.38    
eigenvalue   31 init=  58.54     fin=  37.67     change=  20.87    
eigenvalue   32 init=  59.98     fin=  39.01     change=  20.97    
eigenvalue   33 init=  61.62     fin=  40.61     change=  21.01    
eigenvalue   34 init=  62.26     fin=  41.51     change=  20.75    
eigenvalue   35 init=  65.74     fin=  42.99     change=  22.75    
eigenvalue   36 init=  67.50     fin=  46.08     change=  21.42    
 Checking convergence criteria
 Diagonalising expanded subspace
 Copying updated data back
eigenvalue   25 init=  50.73     fin=  11.75     change=  38.97    
eigenvalue   26 init=  52.18     fin=  15.93     change=  36.26    
eigenvalue   27 init=  53.16     fin=  16.64     change=  36.53    
eigenvalue   28 init=  54.49     fin=  21.06     change=  33.43    
eigenvalue   29 init=  55.44     fin=  24.91     change=  30.53    
eigenvalue   30 init=  56.83     fin=  26.33     change=  30.50    
eigenvalue   31 init=  58.54     fin=  30.05     change=  28.49    
eigenvalue   32 init=  59.98     fin=  30.57     change=  29.41    
eigenvalue   33 init=  61.62     fin=  31.11     change=  30.51    
eigenvalue   34 init=  62.26     fin=  33.50     change=  28.76    
eigenvalue   35 init=  65.74     fin=  35.33     change=  30.41    
eigenvalue   36 init=  67.50     fin=  38.54     change=  28.96    
 Checking convergence criteria
 Diagonalising expanded subspace
 Copying updated data back
eigenvalue   25 init=  50.73     fin=  11.46     change=  39.26    
eigenvalue   26 init=  52.18     fin=  14.78     change=  37.40    
eigenvalue   27 init=  53.16     fin=  15.13     change=  38.04    
eigenvalue   28 init=  54.49     fin=  20.12     change=  34.36    
eigenvalue   29 init=  55.44     fin=  23.97     change=  31.47    
eigenvalue   30 init=  56.83     fin=  24.36     change=  32.47    
eigenvalue   31 init=  58.54     fin=  26.34     change=  32.19    
eigenvalue   32 init=  59.98     fin=  26.86     change=  33.12    
eigenvalue   33 init=  61.62     fin=  27.91     change=  33.72    
eigenvalue   34 init=  62.26     fin=  29.88     change=  32.38    
eigenvalue   35 init=  65.74     fin=  32.56     change=  33.18    
eigenvalue   36 init=  67.50     fin=  33.68     change=  33.82    
 Checking convergence criteria
 no. bands in each block=          12
 Calculating the R matrix for the precon Sinv operator
 Diagonalising expanded subspace
 Copying updated data back
eigenvalue    1 init=  15.39     fin= -11.04     change=  26.43    
eigenvalue    2 init=  17.92     fin= -9.016     change=  26.94    
eigenvalue    3 init=  21.30     fin= 0.7370     change=  20.56    
eigenvalue    4 init=  22.07     fin=  2.238     change=  19.83    
eigenvalue    5 init=  23.45     fin=  2.597     change=  20.85    
eigenvalue    6 init=  25.23     fin=  3.313     change=  21.92    
eigenvalue    7 init=  26.22     fin=  4.040     change=  22.18    
eigenvalue    8 init=  27.83     fin=  6.385     change=  21.45    
eigenvalue    9 init=  29.51     fin=  7.567     change=  21.94    
eigenvalue   10 init=  30.90     fin=  9.569     change=  21.33    
eigenvalue   11 init=  32.63     fin=  12.70     change=  19.93    
eigenvalue   12 init=  34.06     fin=  14.27     change=  19.79    
 Checking convergence criteria
 Diagonalising expanded subspace
 Copying updated data back
eigenvalue    1 init=  15.39     fin= -14.14     change=  29.53    
eigenvalue    2 init=  17.92     fin= -12.90     change=  30.82    
eigenvalue    3 init=  21.30     fin= -1.402     change=  22.70    
eigenvalue    4 init=  22.07     fin= -.5035     change=  22.57    
eigenvalue    5 init=  23.45     fin= 0.1724     change=  23.28    
eigenvalue    6 init=  25.23     fin=  1.276     change=  23.95    
eigenvalue    7 init=  26.22     fin=  1.456     change=  24.77    
eigenvalue    8 init=  27.83     fin=  2.470     change=  25.36    
eigenvalue    9 init=  29.51     fin=  3.778     change=  25.73    
eigenvalue   10 init=  30.90     fin=  4.571     change=  26.33    
eigenvalue   11 init=  32.63     fin=  6.052     change=  26.58    
eigenvalue   12 init=  34.06     fin=  8.723     change=  25.34    
 Checking convergence criteria
 Diagonalising expanded subspace
 Copying updated data back
eigenvalue    1 init=  15.39     fin= -14.14     change=  29.53    
eigenvalue    2 init=  17.92     fin= -12.97     change=  30.89    
eigenvalue    3 init=  21.30     fin= -1.403     change=  22.71    
eigenvalue    4 init=  22.07     fin= -.5795     change=  22.65    
eigenvalue    5 init=  23.45     fin= 0.1545     change=  23.30    
eigenvalue    6 init=  25.23     fin=  1.111     change=  24.12    
eigenvalue    7 init=  26.22     fin=  1.409     change=  24.81    
eigenvalue    8 init=  27.83     fin=  2.450     change=  25.38    
eigenvalue    9 init=  29.51     fin=  3.551     change=  25.96    
eigenvalue   10 init=  30.90     fin=  4.088     change=  26.81    
eigenvalue   11 init=  32.63     fin=  5.246     change=  27.38    
eigenvalue   12 init=  34.06     fin=  8.669     change=  25.39    
 Checking convergence criteria
 Diagonalising expanded subspace
 Copying updated data back
eigenvalue   13 init=  35.20     fin=  3.900     change=  31.30    
eigenvalue   14 init=  35.66     fin=  5.943     change=  29.72    
eigenvalue   15 init=  37.86     fin=  8.410     change=  29.45    
eigenvalue   16 init=  39.40     fin=  10.88     change=  28.53    
eigenvalue   17 init=  40.77     fin=  12.35     change=  28.42    
eigenvalue   18 init=  42.25     fin=  14.51     change=  27.74    
eigenvalue   19 init=  43.35     fin=  17.67     change=  25.69    
eigenvalue   20 init=  44.72     fin=  19.64     change=  25.08    
eigenvalue   21 init=  46.44     fin=  23.81     change=  22.64    
eigenvalue   22 init=  48.53     fin=  26.33     change=  22.21    
eigenvalue   23 init=  50.25     fin=  27.81     change=  22.44    
eigenvalue   24 init=  51.77     fin=  31.89     change=  19.88    
 Checking convergence criteria
 Diagonalising expanded subspace
 Copying updated data back
eigenvalue   13 init=  35.20     fin= -.3451     change=  35.54    
eigenvalue   14 init=  35.66     fin= 0.6371     change=  35.02    
eigenvalue   15 init=  37.86     fin=  1.793     change=  36.07    
eigenvalue   16 init=  39.40     fin=  2.623     change=  36.78    
eigenvalue   17 init=  40.77     fin=  4.277     change=  36.49    
eigenvalue   18 init=  42.25     fin=  7.513     change=  34.74    
eigenvalue   19 init=  43.35     fin=  8.615     change=  34.74    
eigenvalue   20 init=  44.72     fin=  11.53     change=  33.19    
eigenvalue   21 init=  46.44     fin=  15.17     change=  31.27    
eigenvalue   22 init=  48.53     fin=  16.95     change=  31.58    
eigenvalue   23 init=  50.25     fin=  20.17     change=  30.08    
eigenvalue   24 init=  51.77     fin=  23.81     change=  27.96    
 Checking convergence criteria
 Diagonalising expanded subspace
 Copying updated data back
eigenvalue   13 init=  35.20     fin= -.6802     change=  35.88    
eigenvalue   14 init=  35.66     fin= 0.1911     change=  35.47    
eigenvalue   15 init=  37.86     fin=  1.255     change=  36.61    
eigenvalue   16 init=  39.40     fin=  2.212     change=  37.19    
eigenvalue   17 init=  40.77     fin=  3.101     change=  37.67    
eigenvalue   18 init=  42.25     fin=  5.191     change=  37.06    
eigenvalue   19 init=  43.35     fin=  7.046     change=  36.31    
eigenvalue   20 init=  44.72     fin=  9.665     change=  35.05    
eigenvalue   21 init=  46.44     fin=  12.52     change=  33.92    
eigenvalue   22 init=  48.53     fin=  14.14     change=  34.40    
eigenvalue   23 init=  50.25     fin=  14.68     change=  35.57    
eigenvalue   24 init=  51.77     fin=  19.11     change=  32.66    
 Checking convergence criteria
 Diagonalising expanded subspace
 Copying updated data back
eigenvalue   25 init=  52.63     fin=  21.52     change=  31.11    
eigenvalue   26 init=  54.03     fin=  25.58     change=  28.45    
eigenvalue   27 init=  56.71     fin=  28.75     change=  27.95    
eigenvalue   28 init=  57.71     fin=  31.23     change=  26.48    
eigenvalue   29 init=  58.11     fin=  33.99     change=  24.11    
eigenvalue   30 init=  59.80     fin=  36.27     change=  23.52    
eigenvalue   31 init=  60.46     fin=  37.34     change=  23.13    
eigenvalue   32 init=  62.85     fin=  38.86     change=  23.99    
eigenvalue   33 init=  64.20     fin=  40.86     change=  23.35    
eigenvalue   34 init=  64.88     fin=  42.67     change=  22.21    
eigenvalue   35 init=  66.34     fin=  45.75     change=  20.59    
eigenvalue   36 init=  68.87     fin=  47.36     change=  21.51    
 Checking convergence criteria
 Diagonalising expanded subspace
 Copying updated data back
eigenvalue   25 init=  52.63     fin=  11.62     change=  41.01    
eigenvalue   26 init=  54.03     fin=  14.24     change=  39.79    
eigenvalue   27 init=  56.71     fin=  19.28     change=  37.42    
eigenvalue   28 init=  57.71     fin=  22.71     change=  35.00    
eigenvalue   29 init=  58.11     fin=  23.80     change=  34.30    
eigenvalue   30 init=  59.80     fin=  27.04     change=  32.76    
eigenvalue   31 init=  60.46     fin=  28.67     change=  31.80    
eigenvalue   32 init=  62.85     fin=  30.54     change=  32.30    
eigenvalue   33 init=  64.20     fin=  32.47     change=  31.74    
eigenvalue   34 init=  64.88     fin=  33.27     change=  31.61    
eigenvalue   35 init=  66.34     fin=  36.15     change=  30.19    
eigenvalue   36 init=  68.87     fin=  37.14     change=  31.73    
 Checking convergence criteria
 Diagonalising expanded subspace
 Copying updated data back
eigenvalue   25 init=  52.63     fin=  10.08     change=  42.55    
eigenvalue   26 init=  54.03     fin=  12.14     change=  41.89    
eigenvalue   27 init=  56.71     fin=  17.67     change=  39.04    
eigenvalue   28 init=  57.71     fin=  19.56     change=  38.15    
eigenvalue   29 init=  58.11     fin=  21.42     change=  36.68    
eigenvalue   30 init=  59.80     fin=  24.12     change=  35.67    
eigenvalue   31 init=  60.46     fin=  25.97     change=  34.49    
eigenvalue   32 init=  62.85     fin=  27.27     change=  35.58    
eigenvalue   33 init=  64.20     fin=  29.48     change=  34.73    
eigenvalue   34 init=  64.88     fin=  31.36     change=  33.51    
eigenvalue   35 init=  66.34     fin=  31.76     change=  34.57    
eigenvalue   36 init=  68.87     fin=  33.51     change=  35.36    
 Checking convergence criteria
 no. bands in each block=          12
 Calculating the R matrix for the precon Sinv operator
 Diagonalising expanded subspace
 Copying updated data back
eigenvalue    1 init=  13.04     fin= -11.77     change=  24.81    
eigenvalue    2 init=  16.65     fin= -6.552     change=  23.20    
eigenvalue    3 init=  20.01     fin=  1.624     change=  18.39    
eigenvalue    4 init=  24.05     fin=  2.602     change=  21.45    
eigenvalue    5 init=  25.15     fin=  3.396     change=  21.75    
eigenvalue    6 init=  27.33     fin=  3.859     change=  23.47    
eigenvalue    7 init=  28.30     fin=  5.746     change=  22.55    
eigenvalue    8 init=  30.19     fin=  6.335     change=  23.85    
eigenvalue    9 init=  31.01     fin=  9.482     change=  21.53    
eigenvalue   10 init=  33.42     fin=  13.10     change=  20.32    
eigenvalue   11 init=  34.92     fin=  13.55     change=  21.38    
eigenvalue   12 init=  36.05     fin=  16.29     change=  19.76    
 Checking convergence criteria
 Diagonalising expanded subspace
 Copying updated data back
eigenvalue    1 init=  13.04     fin= -14.59     change=  27.63    
eigenvalue    2 init=  16.65     fin= -11.92     change=  28.57    
eigenvalue    3 init=  20.01     fin= -.9990     change=  21.01    
eigenvalue    4 init=  24.05     fin= 0.1124     change=  23.94    
eigenvalue    5 init=  25.15     fin= 0.6207     change=  24.52    
eigenvalue    6 init=  27.33     fin=  1.390     change=  25.94    
eigenvalue    7 init=  28.30     fin=  1.769     change=  26.53    
eigenvalue    8 init=  30.19     fin=  3.339     change=  26.85    
eigenvalue    9 init=  31.01     fin=  4.344     change=  26.66    
eigenvalue   10 init=  33.42     fin=  6.812     change=  26.61    
eigenvalue   11 init=  34.92     fin=  7.406     change=  27.52    
eigenvalue   12 init=  36.05     fin=  11.59     change=  24.46    
 Checking convergence criteria
 Diagonalising expanded subspace
 Copying updated data back
eigenvalue    1 init=  13.04     fin= -14.59     change=  27.63    
eigenvalue    2 init=  16.65     fin= -11.95     change=  28.61    
eigenvalue    3 init=  20.01     fin= -1.031     change=  21.04    
eigenvalue    4 init=  24.05     fin= 0.2082E-01 change=  24.03    
eigenvalue    5 init=  25.15     fin= 0.5716     change=  24.57    
eigenvalue    6 init=  27.33     fin=  1.295     change=  26.03    
eigenvalue    7 init=  28.30     fin=  1.689     change=  26.61    
eigenvalue    8 init=  30.19     fin=  3.322     change=  26.87    
eigenvalue    9 init=  31.01     fin=  3.960     change=  27.05    
eigenvalue   10 init=  33.42     fin=  4.961     change=  28.46    
eigenvalue   11 init=  34.92     fin=  7.371     change=  27.55    
eigenvalue   12 init=  36.05     fin=  11.34     change=  24.71    
 Checking convergence criteria
 Diagonalising expanded subspace
 Copying updated data back
eigenvalue   13 init=  36.82     fin=  2.832     change=  33.99    
eigenvalue   14 init=  38.39     fin=  5.783     change=  32.61    
eigenvalue   15 init=  39.86     fin=  7.183     change=  32.68    
eigenvalue   16 init=  40.60     fin=  11.40     change=  29.20    
eigenvalue   17 init=  41.85     fin=  12.57     change=  29.28    
eigenvalue   18 init=  44.04     fin=  16.11     change=  27.93    
eigenvalue   19 init=  45.48     fin=  18.51     change=  26.97    
eigenvalue   20 init=  47.45     fin=  20.71     change=  26.74    
eigenvalue   21 init=  48.54     fin=  23.02     change=  25.52    
eigenvalue   22 init=  49.92     fin=  24.44     change=  25.49    
eigenvalue   23 init=  52.30     fin=  27.16     change=  25.14    
eigenvalue   24 init=  54.07     fin=  31.68     change=  22.39    
 Checking convergence criteria
 Diagonalising expanded subspace
 Copying updated data back
eigenvalue   13 init=  36.82     fin= -.9398     change=  37.76    
eigenvalue   14 init=  38.39     fin= -.6654E-01 change=  38.46    
eigenvalue   15 init=  39.86     fin=  1.351     change=  38.51    
eigenvalue   16 init=  40.60     fin=  1.775     change=  38.83    
eigenvalue   17 init=  41.85     fin=  4.980     change=  36.87    
eigenvalue   18 init=  44.04     fin=  6.257     change=  37.78    
eigenvalue   19 init=  45.48     fin=  9.540     change=  35.94    
eigenvalue   20 init=  47.45     fin=  12.33     change=  35.11    
eigenvalue   21 init=  48.54     fin=  13.92     change=  34.62    
eigenvalue   22 init=  49.92     fin=  18.06     change=  31.86    
eigenvalue   23 init=  52.30     fin=  20.45     change=  31.85    
eigenvalue   24 init=  54.07     fin=  23.92     change=  30.16    
 Checking convergence criteria
 Diagonalising expanded subspace
 Copying updated data back
eigenvalue   13 init=  36.82     fin= -1.297     change=  38.12    
eigenvalue   14 init=  38.39     fin= -.7453     change=  39.14    
eigenvalue   15 init=  39.86     fin= 0.1048     change=  39.76    
eigenvalue   16 init=  40.60     fin=  1.138     change=  39.46    
eigenvalue   17 init=  41.85     fin=  1.889     change=  39.96    
eigenvalue   18 init=  44.04     fin=  3.834     change=  40.20    
eigenvalue   19 init=  45.48     fin=  6.992     change=  38.48    
eigenvalue   20 init=  47.45     fin=  9.157     change=  38.29    
eigenvalue   21 init=  48.54     fin=  10.77     change=  37.77    
eigenvalue   22 init=  49.92     fin=  15.49     change=  34.44    
eigenvalue   23 init=  52.30     fin=  17.26     change=  35.04    
eigenvalue   24 init=  54.07     fin=  19.95     change=  34.12    
 Checking convergence criteria
 Diagonalising expanded subspace
 Copying updated data back
eigenvalue   25 init=  54.79     fin=  22.93     change=  31.86    
eigenvalue   26 init=  55.97     fin=  24.78     change=  31.19    
eigenvalue   27 init=  56.94     fin=  27.23     change=  29.71    
eigenvalue   28 init=  58.23     fin=  30.97     change=  27.26    
eigenvalue   29 init=  59.82     fin=  33.14     change=  26.68    
eigenvalue   30 init=  60.93     fin=  34.38     change=  26.55    
eigenvalue   31 init=  61.95     fin=  37.52     change=  24.43    
eigenvalue   32 init=  63.46     fin=  38.85     change=  24.61    
eigenvalue   33 init=  65.87     fin=  41.79     change=  24.09    
eigenvalue   34 init=  66.97     fin=  42.85     change=  24.13    
eigenvalue   35 init=  67.81     fin=  47.09     change=  20.72    
eigenvalue   36 init=  70.58     fin=  49.83     change=  20.76    
 Checking convergence criteria
 Diagonalising expanded subspace
 Copying updated data back
eigenvalue   25 init=  54.79     fin=  10.99     change=  43.80    
eigenvalue   26 init=  55.97     fin=  16.01     change=  39.96    
eigenvalue   27 init=  56.94     fin=  18.76     change=  38.17    
eigenvalue   28 init=  58.23     fin=  22.51     change=  35.73    
eigenvalue   29 init=  59.82     fin=  24.36     change=  35.46    
eigenvalue   30 init=  60.93     fin=  27.08     change=  33.85    
eigenvalue   31 init=  61.95     fin=  28.83     change=  33.13    
eigenvalue   32 init=  63.46     fin=  31.08     change=  32.38    
eigenvalue   33 init=  65.87     fin=  31.62     change=  34.25    
eigenvalue   34 init=  66.97     fin=  33.58     change=  33.39    
eigenvalue   35 init=  67.81     fin=  35.46     change=  32.35    
eigenvalue   36 init=  70.58     fin=  37.78     change=  32.81    
 Checking convergence criteria
 Diagonalising expanded subspace
 Copying updated data back
eigenvalue   25 init=  54.79     fin=  8.981     change=  45.81    
eigenvalue   26 init=  55.97     fin=  15.52     change=  40.45    
eigenvalue   27 init=  56.94     fin=  18.35     change=  38.59    
eigenvalue   28 init=  58.23     fin=  19.63     change=  38.61    
eigenvalue   29 init=  59.82     fin=  22.01     change=  37.81    
eigenvalue   30 init=  60.93     fin=  25.78     change=  35.15    
eigenvalue   31 init=  61.95     fin=  26.63     change=  35.32    
eigenvalue   32 init=  63.46     fin=  27.73     change=  35.73    
eigenvalue   33 init=  65.87     fin=  28.68     change=  37.19    
eigenvalue   34 init=  66.97     fin=  30.65     change=  36.32    
eigenvalue   35 init=  67.81     fin=  31.68     change=  36.13    
eigenvalue   36 init=  70.58     fin=  32.23     change=  38.36    
 Checking convergence criteria
 no. bands in each block=          12
 Calculating the R matrix for the precon Sinv operator
 Diagonalising expanded subspace
 Copying updated data back
eigenvalue    1 init=  13.84     fin= -11.15     change=  24.99    
eigenvalue    2 init=  19.09     fin= -8.208     change=  27.30    
eigenvalue    3 init=  21.76     fin=  1.655     change=  20.11    
eigenvalue    4 init=  23.16     fin=  2.961     change=  20.20    
eigenvalue    5 init=  26.70     fin=  3.804     change=  22.90    
eigenvalue    6 init=  27.39     fin=  5.102     change=  22.28    
eigenvalue    7 init=  28.20     fin=  6.614     change=  21.59    
eigenvalue    8 init=  30.30     fin=  7.196     change=  23.10    
eigenvalue    9 init=  31.41     fin=  9.113     change=  22.30    
eigenvalue   10 init=  32.37     fin=  11.33     change=  21.04    
eigenvalue   11 init=  34.54     fin=  12.28     change=  22.25    
eigenvalue   12 init=  35.66     fin=  14.88     change=  20.78    
 Checking convergence criteria
 Diagonalising expanded subspace
 Copying updated data back
eigenvalue    1 init=  13.84     fin= -14.25     change=  28.09    
eigenvalue    2 init=  19.09     fin= -12.90     change=  32.00    
eigenvalue    3 init=  21.76     fin= -.5916     change=  22.35    
eigenvalue    4 init=  23.16     fin= 0.1725E-01 change=  23.14    
eigenvalue    5 init=  26.70     fin= 0.5973     change=  26.11    
eigenvalue    6 init=  27.39     fin=  1.949     change=  25.44    
eigenvalue    7 init=  28.20     fin=  2.651     change=  25.55    
eigenvalue    8 init=  30.30     fin=  3.119     change=  27.18    
eigenvalue    9 init=  31.41     fin=  4.021     change=  27.39    
eigenvalue   10 init=  32.37     fin=  5.351     change=  27.02    
eigenvalue   11 init=  34.54     fin=  6.808     change=  27.73    
eigenvalue   12 init=  35.66     fin=  8.741     change=  26.91    
 Checking convergence criteria
 Diagonalising expanded subspace
 Copying updated data back
eigenvalue   13 init=  37.51     fin=  5.836     change=  31.67    
eigenvalue   14 init=  39.15     fin=  6.779     change=  32.38    
eigenvalue   15 init=  40.65     fin=  9.075     change=  31.58    
eigenvalue   16 init=  41.67     fin=  10.06     change=  31.61    
eigenvalue   17 init=  43.73     fin=  11.31     change=  32.41    
eigenvalue   18 init=  45.35     fin=  16.86     change=  28.49    
eigenvalue   19 init=  47.85     fin=  19.36     change=  28.49    
eigenvalue   20 init=  48.50     fin=  20.53     change=  27.97    
eigenvalue   21 init=  49.31     fin=  24.07     change=  25.24    
eigenvalue   22 init=  50.73     fin=  26.26     change=  24.47    
eigenvalue   23 init=  52.20     fin=  28.07     change=  24.14    
eigenvalue   24 init=  53.10     fin=  31.75     change=  21.35    
 Checking convergence criteria
 Diagonalising expanded subspace
 Copying updated data back
eigenvalue   13 init=  37.51     fin= -.3732     change=  37.88    
eigenvalue   14 init=  39.15     fin= 0.7367     change=  38.42    
eigenvalue   15 init=  40.65     fin=  1.692     change=  38.96    
eigenvalue   16 init=  41.67     fin=  2.360     change=  39.31    
eigenvalue   17 init=  43.73     fin=  3.866     change=  39.86    
eigenvalue   18 init=  45.35     fin=  6.256     change=  39.09    
eigenvalue   19 init=  47.85     fin=  7.840     change=  40.01    
eigenvalue   20 init=  48.50     fin=  13.65     change=  34.85    
eigenvalue   21 init=  49.31     fin=  16.43     change=  32.88    
eigenvalue   22 init=  50.73     fin=  19.35     change=  31.38    
eigenvalue   23 init=  52.20     fin=  21.43     change=  30.77    
eigenvalue   24 init=  53.10     fin=  22.19     change=  30.91    
 Checking convergence criteria
 Diagonalising expanded subspace
 Copying updated data back
eigenvalue   13 init=  37.51     fin= -.6374     change=  38.14    
eigenvalue   14 init=  39.15     fin= 0.1108     change=  39.04    
eigenvalue   15 init=  40.65     fin= 0.8800     change=  39.77    
eigenvalue   16 init=  41.67     fin=  1.575     change=  40.10    
eigenvalue   17 init=  43.73     fin=  2.071     change=  41.65    
eigenvalue   18 init=  45.35     fin=  3.983     change=  41.37    
eigenvalue   19 init=  47.85     fin=  4.367     change=  43.48    
eigenvalue   20 init=  48.50     fin=  10.69     change=  37.81    
eigenvalue   21 init=  49.31     fin=  14.45     change=  34.87    
eigenvalue   22 init=  50.73     fin=  17.85     change=  32.88    
eigenvalue   23 init=  52.20     fin=  19.12     change=  33.09    
eigenvalue   24 init=  53.10     fin=  20.48     change=  32.62    
 Checking convergence criteria
 Diagonalising expanded subspace
 Copying updated data back
eigenvalue   25 init=  54.48     fin=  20.75     change=  33.74    
eigenvalue   26 init=  56.25     fin=  24.83     change=  31.42    
eigenvalue   27 init=  57.51     fin=  26.91     change=  30.60    
eigenvalue   28 init=  59.36     fin=  29.03     change=  30.33    
eigenvalue   29 init=  60.45     fin=  31.85     change=  28.60    
eigenvalue   30 init=  61.15     fin=  34.51     change=  26.64    
eigenvalue   31 init=  63.11     fin=  36.21     change=  26.91    
eigenvalue   32 init=  64.17     fin=  37.23     change=  26.94    
eigenvalue   33 init=  65.57     fin=  39.62     change=  25.95    
eigenvalue   34 init=  66.45     fin=  42.65     change=  23.80    
eigenvalue   35 init=  68.67     fin=  43.83     change=  24.84    
eigenvalue   36 init=  69.71     fin=  48.26     change=  21.45    
 Checking convergence criteria
 Diagonalising expanded subspace
 Copying updated data back
eigenvalue   25 init=  54.48     fin=  11.94     change=  42.54    
eigenvalue   26 init=  56.25     fin=  15.82     change=  40.43    
eigenvalue   27 init=  57.51     fin=  19.63     change=  37.87    
eigenvalue   28 init=  59.36     fin=  20.70     change=  38.66    
eigenvalue   29 init=  60.45     fin=  22.71     change=  37.74    
eigenvalue   30 init=  61.15     fin=  24.61     change=  36.54    
eigenvalue   31 init=  63.11     fin=  26.13     change=  36.98    
eigenvalue   32 init=  64.17     fin=  27.16     change=  37.01    
eigenvalue   33 init=  65.57     fin=  28.23     change=  37.34    
eigenvalue   34 init=  66.45     fin=  30.18     change=  36.27    
eigenvalue   35 init=  68.67     fin=  33.20     change=  35.47    
eigenvalue   36 init=  69.71     fin=  35.17     change=  34.54    
 Checking convergence criteria
 Diagonalising expanded subspace
 Copying updated data back
eigenvalue   25 init=  54.48     fin=  11.22     change=  43.27    
[...]
           4           1 Total:    4.99206682107396       Mz:
  0.000000000000000E+000
 -------------------------------------------
 Matrix of eigenvectors
occupation :   DZZ       DZY       DZX       DXX-YY    DXY       
     0.998 :       0.00      0.15      0.54     -0.80      0.22
           :       0.00      0.00      0.00      0.00      0.00
     0.998 :       0.00      0.54     -0.15      0.22      0.80
           :       0.00      0.00      0.00      0.00      0.00
     0.998 :       1.00      0.00      0.00      0.00      0.00
           :       0.00      0.00      0.00      0.00      0.00
     0.999 :       0.00      0.76     -0.33     -0.22     -0.51
           :       0.00      0.00      0.00      0.00      0.00
     0.999 :       0.00     -0.33     -0.76     -0.51      0.22
           :       0.00      0.00      0.00      0.00      0.00
 ->>---------------------------------------<<-
 -------------------------------------------
 Channel            4  and spin            2  :
 -------------------------------------------
 Density matrix
     0.998    -0.000     0.000     0.000     0.000
     0.000     0.000     0.000     0.000     0.000
    -0.000     0.999     0.000     0.000    -0.001
     0.000     0.000     0.000     0.000     0.000
     0.000     0.000     0.999     0.001     0.000
     0.000     0.000     0.000     0.000     0.000
     0.000     0.000     0.001     0.998     0.000
     0.000     0.000     0.000     0.000     0.000
     0.000    -0.001     0.000     0.000     0.998
     0.000     0.000     0.000     0.000     0.000
           4           2 Total:    4.99206672856417       Mz:
  0.000000000000000E+000
 -------------------------------------------
 Matrix of eigenvectors
occupation :   DZZ       DZY       DZX       DXX-YY    DXY       
     0.998 :       0.00     -0.55      0.06     -0.09     -0.83
           :       0.00      0.00      0.00      0.00      0.00
     0.998 :       0.00     -0.06     -0.55      0.83     -0.09
           :       0.00      0.00      0.00      0.00      0.00
     0.998 :       1.00      0.00      0.00      0.00      0.00
           :       0.00      0.00      0.00      0.00      0.00
     0.999 :       0.00      0.10      0.82      0.55     -0.07
           :       0.00      0.00      0.00      0.00      0.00
     0.999 :       0.00      0.82     -0.10     -0.07     -0.55
           :       0.00      0.00      0.00      0.00      0.00
 ->>---------------------------------------<<-
  Zn       2    2   up:   1.00  1.00  1.00  1.00  1.00
                    dn:   1.00  1.00  1.00  1.00  1.00
==================================================================
 
 Density matrix in cubic harmonics:
     0.9526     0.0000    -0.0000
     0.0000     0.0000     0.0000
     0.0000     0.9526     0.0000
     0.0000     0.0000     0.0000
    -0.0000     0.0000     0.9529
     0.0000     0.0000     0.0000
 Hermiticity: (0.135150257240855,0.000000000000000E+000)
 Density matrix in cubic harmonics:
     0.9526     0.0000    -0.0000
     0.0000     0.0000     0.0000
     0.0000     0.9526     0.0000
     0.0000     0.0000     0.0000
    -0.0000     0.0000     0.9529
     0.0000     0.0000     0.0000
 Hermiticity: (0.135150930874014,0.000000000000000E+000)
 Density matrix in cubic harmonics:
     0.9526     0.0000    -0.0000
     0.0000     0.0000     0.0000
     0.0000     0.9526     0.0000
     0.0000     0.0000     0.0000
    -0.0000     0.0000     0.9529
     0.0000     0.0000     0.0000
 Hermiticity: (0.135150257240855,0.000000000000000E+000)
 Density matrix in cubic harmonics:
     0.9526     0.0000    -0.0000
     0.0000     0.0000     0.0000
     0.0000     0.9526     0.0000
     0.0000     0.0000     0.0000
    -0.0000     0.0000     0.9529
     0.0000     0.0000     0.0000
 Hermiticity: (0.135150930874015,0.000000000000000E+000)
 Density matrix in cubic harmonics:
     0.9978     0.0000    -0.0000    -0.0000     0.0000
     0.0000     0.0000     0.0000     0.0000     0.0000
     0.0000     0.9989     0.0000    -0.0000     0.0008
     0.0000     0.0000     0.0000     0.0000     0.0000
    -0.0000     0.0000     0.9989    -0.0008    -0.0000
     0.0000     0.0000     0.0000     0.0000     0.0000
    -0.0000    -0.0000    -0.0008     0.9983     0.0000
     0.0000     0.0000     0.0000     0.0000     0.0000
     0.0000     0.0008    -0.0000     0.0000     0.9983
     0.0000     0.0000     0.0000     0.0000     0.0000
 Hermiticity: (7.917215002398281E-003,0.000000000000000E+000)
 Density matrix in cubic harmonics:
     0.9978     0.0000    -0.0000    -0.0000     0.0000
     0.0000     0.0000     0.0000     0.0000     0.0000
     0.0000     0.9989     0.0000    -0.0000     0.0008
     0.0000     0.0000     0.0000     0.0000     0.0000
    -0.0000     0.0000     0.9989    -0.0008    -0.0000
     0.0000     0.0000     0.0000     0.0000     0.0000
    -0.0000    -0.0000    -0.0008     0.9983     0.0000
     0.0000     0.0000     0.0000     0.0000     0.0000
     0.0000     0.0008    -0.0000     0.0000     0.9983
     0.0000     0.0000     0.0000     0.0000     0.0000
 Hermiticity: (7.917307055433254E-003,0.000000000000000E+000)
 Density matrix in cubic harmonics:
     0.9978    -0.0000     0.0000     0.0000     0.0000
     0.0000     0.0000     0.0000     0.0000     0.0000
    -0.0000     0.9989     0.0000     0.0000    -0.0008
     0.0000     0.0000     0.0000     0.0000     0.0000
     0.0000     0.0000     0.9989     0.0008     0.0000
     0.0000     0.0000     0.0000     0.0000     0.0000
     0.0000     0.0000     0.0008     0.9983     0.0000
     0.0000     0.0000     0.0000     0.0000     0.0000
     0.0000    -0.0008     0.0000     0.0000     0.9983
     0.0000     0.0000     0.0000     0.0000     0.0000
 Hermiticity: (7.917215002398059E-003,0.000000000000000E+000)
 Density matrix in cubic harmonics:
     0.9978    -0.0000     0.0000     0.0000     0.0000
     0.0000     0.0000     0.0000     0.0000     0.0000
    -0.0000     0.9989     0.0000     0.0000    -0.0008
     0.0000     0.0000     0.0000     0.0000     0.0000
     0.0000     0.0000     0.9989     0.0008     0.0000
     0.0000     0.0000     0.0000     0.0000     0.0000
     0.0000     0.0000     0.0008     0.9983     0.0000
     0.0000     0.0000     0.0000     0.0000     0.0000
     0.0000    -0.0008     0.0000     0.0000     0.9983
     0.0000     0.0000     0.0000     0.0000     0.0000
 Hermiticity: (7.917307055433698E-003,0.000000000000000E+000)
LDA+U energy: Ha   =    0.021030588064
LDA+U forces Ha/A    1     1.772531847936    3.070115218659    3.763581109429   -0.000570049139   -0.000522515630    0.000077812918
LDA+U forces Ha/A    2    -1.772531847936   -3.070115218659    8.682009114432    0.000518560861    0.000524237766   -0.000049670347
LDA+U forces Ha/A    3     1.772531847936    3.070115218659    0.000000000000   -0.000023397090   -0.000008420856    0.000026586078
LDA+U forces Ha/A    4    -1.772531847936   -3.070115218659    4.918428005003    0.000020035859    0.000002545833    0.000018803463
  achived lda+u energy convergence:  7.349864877510567E-007
 
 ******************** Ewald forces ********************
 *                                                    *
 *            Cartesian components (eV/A)             *
 * -------------------------------------------------- *
 *                   x            y            z      *
 *                                                    *
 * O         1     -0.00000      0.00000     -0.82814 *
 * O         2     -0.00000     -0.00000     -0.82814 *
 * Zn        1      0.00000      0.00000      0.82814 *
 * Zn        2      0.00000     -0.00000      0.82814 *
 *                                                    *
 ******************************************************
 
 *************** Local potential forces ***************
 *                                                    *
 *            Cartesian components (eV/A)             *
 * -------------------------------------------------- *
 *                   x            y            z      *
 *                                                    *
 * O         1     -0.00000      0.00000      0.70426 *
 * O         2      0.00000     -0.00000      0.70426 *
 * Zn        1     -0.00000      0.00000     -0.63333 *
 * Zn        2      0.00000     -0.00000     -0.63333 *
 *                                                    *
 ******************************************************
 
 ************* Non-local potential forces *************
 *                                                    *
 *            Cartesian components (eV/A)             *
 * -------------------------------------------------- *
 *                   x            y            z      *
 *                                                    *
 * O         1      0.03791     -0.33402      0.31806 *
 * O         2     -0.37435      0.39907     -0.18496 *
 * Zn        1      0.88135      0.21667     -0.11774 *
 * Zn        2     -0.51796     -0.30925     -0.15031 *
 *                                                    *
 ******************************************************
 
 *********** External Efield and/or dipole ************
 *                                                    *
 *            Cartesian components (eV/A)             *
 * -------------------------------------------------- *
 *                   x            y            z      *
 *                                                    *
 * O         1      0.00000      0.00000      0.00000 *
 * O         2      0.00000      0.00000      0.00000 *
 * Zn        1      0.00000      0.00000      0.00000 *
 * Zn        2      0.00000      0.00000      0.00000 *
 *                                                    *
 ******************************************************
 
 ************** DM correction to forces ***************
 *                                                    *
 *            Cartesian components (eV/A)             *
 * -------------------------------------------------- *
 *                   x            y            z      *
 *                                                    *
 * O         1      0.00000      0.00000      0.00000 *
 * O         2      0.00000      0.00000      0.00000 *
 * Zn        1      0.00000      0.00000      0.00000 *
 * Zn        2      0.00000      0.00000      0.00000 *
 *                                                    *
 ******************************************************
 
 ************** Hubbard potential forces **************
 *                                                    *
 *            Cartesian components (eV/A)             *
 * -------------------------------------------------- *
 *                   x            y            z      *
 *                                                    *
 * O         1     -0.02931     -0.02687      0.00400 *
 * O         2      0.02667      0.02696     -0.00255 *
 * Zn        1     -0.00120     -0.00043      0.00137 *
 * Zn        2      0.00103      0.00013      0.00097 *
 *                                                    *
 ******************************************************
 
 ***************** Symmetrised Forces *****************
 *                                                    *
 *            Cartesian components (eV/A)             *
 * -------------------------------------------------- *
 *                   x            y            z      *
 *                                                    *
 * O         1      0.00000      0.00000     -0.05928 *
 * O         2     -0.00000      0.00000     -0.05928 *
 * Zn        1      0.00000      0.00000      0.05928 *
 * Zn        2      0.00000     -0.00000      0.05928 *
 *                                                    *
 ******************************************************
 
 Pseudo atomic calculation performed for O 2s2 2p4
 
 Converged in 22 iterations to a total energy of -429.5634 eV
 
 
 Pseudo atomic calculation performed for Zn 3d10 4s2
 
 Converged in 39 iterations to a total energy of -1708.1196 eV
 
Charge spilling parameter for spin component 1 = 0.08%
Charge spilling parameter for spin component 2 = 0.08%
The total projected populations are: spin up   18.000  -0.000, spin down   18.000   0.000, total   36.000  -0.000
 
     Atomic Populations (Mulliken)
     -----------------------------
Species   Ion     s      p      d      f     Total  Charge (e)  Spin (hbar)
===========================================================================
  O        1     1.84   5.01   0.00   0.00   6.86    -0.86        0.00
  O        2     1.84   5.01   0.00   0.00   6.86    -0.86        0.00
  Zn       1     0.46   0.70   9.98   0.00  11.14     0.86       -0.00
  Zn       2     0.46   0.70   9.98   0.00  11.14     0.86       -0.00
===========================================================================
 
            Bond              Population        Spin       Length (A)
======================================================================
          O 1 -- Zn 2              1.13        -0.00          1.97300
          O 2 -- Zn 1              1.13        -0.00          1.97300
          O 2 -- Zn 2              0.25        -0.00          1.99160
          O 1 -- Zn 1              0.25        -0.00          1.99160
======================================================================
 
All bands spilling parameter for spin component 1 =25.24%
All bands spilling parameter for spin component 2 =25.24%
 Species     1,  Atom     1  :  O
  Fractional coordinates :
                                        0.333333333   0.666666667   0.382600000
  Cartesian coordinates (A) :
                                        0.937983455   1.624635000   1.991601344
  Free atom total nuclear charge (e) :
                                        6.000000000
  Free atom total electronic charge on real space grid (e) :
                                       -6.000000000
  SCF total electronic charge on real space grid (e) :
                                      -36.000000000
  SCF total electronic spin on real space grid (hbar) :
                                       -0.000000021
  cut-off radius for r-integrals :
                                       10.000000000
  Free atom volume (Bohr**3) :
                                       22.078195020
  Hirshfeld total electronic charge (e) :
                                       -6.353349796
  Hirshfeld net atomic charge (e) :
                                       -0.353349796
  Hirshfeld net atomic spin (hbar) :
                                        0.000005871
  Hirshfeld atomic volume (Bohr**3) :
                                       21.598144561
  Hirshfeld / free atomic volume :
                                        0.978256807
 
 Species     1,  Atom     2  :  O
  Fractional coordinates :
                                       -0.333333333  -0.666666667   0.882600000
  Cartesian coordinates (A) :
                                       -0.937983455  -1.624635000   4.594321344
  Free atom total nuclear charge (e) :
                                        6.000000000
  Free atom total electronic charge on real space grid (e) :
                                       -6.000000000
  SCF total electronic charge on real space grid (e) :
                                      -36.000000000
  SCF total electronic spin on real space grid (hbar) :
                                       -0.000000021
  cut-off radius for r-integrals :
                                       10.000000000
  Free atom volume (Bohr**3) :
                                       22.078195020
  Hirshfeld total electronic charge (e) :
                                       -6.353349796
  Hirshfeld net atomic charge (e) :
                                       -0.353349796
  Hirshfeld net atomic spin (hbar) :
                                        0.000005871
  Hirshfeld atomic volume (Bohr**3) :
                                       21.598144561
  Hirshfeld / free atomic volume :
                                        0.978256807
 
 Species     2,  Atom     1  :  Zn
  Fractional coordinates :
                                        0.333333333   0.666666667   0.000000000
  Cartesian coordinates (A) :
                                        0.937983455   1.624635000   0.000000000
  Free atom total nuclear charge (e) :
                                       12.000000000
  Free atom total electronic charge on real space grid (e) :
                                      -12.000000000
  SCF total electronic charge on real space grid (e) :
                                      -36.000000000
  SCF total electronic spin on real space grid (hbar) :
                                       -0.000000021
  cut-off radius for r-integrals :
                                       11.000000000
  Free atom volume (Bohr**3) :
                                       59.578132047
  Hirshfeld total electronic charge (e) :
                                      -11.646650204
  Hirshfeld net atomic charge (e) :
                                        0.353349796
  Hirshfeld net atomic spin (hbar) :
                                       -0.000005881
  Hirshfeld atomic volume (Bohr**3) :
                                       53.722814787
  Hirshfeld / free atomic volume :
                                        0.901720362
 
 Species     2,  Atom     2  :  Zn
  Fractional coordinates :
                                       -0.333333333  -0.666666667   0.500000000
  Cartesian coordinates (A) :
                                       -0.937983455  -1.624635000   2.602720000
  Free atom total nuclear charge (e) :
                                       12.000000000
  Free atom total electronic charge on real space grid (e) :
                                      -12.000000000
  SCF total electronic charge on real space grid (e) :
                                      -36.000000000
  SCF total electronic spin on real space grid (hbar) :
                                       -0.000000021
  cut-off radius for r-integrals :
                                       11.000000000
  Free atom volume (Bohr**3) :
                                       59.578132047
  Hirshfeld total electronic charge (e) :
                                      -11.646650204
  Hirshfeld net atomic charge (e) :
                                        0.353349796
  Hirshfeld net atomic spin (hbar) :
                                       -0.000005881
  Hirshfeld atomic volume (Bohr**3) :
                                       53.722814787
  Hirshfeld / free atomic volume :
                                        0.901720362
 
 
     Hirshfeld Analysis
     ------------------
Species   Ion     Hirshfeld Charge (e)  Spin (hbar)
===================================================
  O        1                -0.35        0.00
  O        2                -0.35        0.00
  Zn       1                 0.35       -0.00
  Zn       2                 0.35       -0.00
===================================================
 
 
Writing model to ZnO_LR.check
 
Writing analysis data to ZnO_LR.castep_bin
 
 A BibTeX formatted list of references used in this run has been written to 
 ZnO_LR.bib
 
Initialisation time =      0.19 s
Calculation time    =     16.12 s
Finalisation time   =      0.09 s
Total time          =     16.40 s
Peak Memory Use     = 2685240 kB
  
Overall parallel efficiency rating: Mediocre (59%)                              
  
Data was distributed by:-
G-vector (2-way); efficiency rating: Satisfactory (67%)                         
k-point (2-way); efficiency rating: Very good (83%)                             
  
Parallel notes:
1) Calculation only took 16.3 s, so efficiency estimates may be inaccurate.     
2) k-points were not fully distributed, there were 5 k-points per process.      
  
Efficiencies are estimated from the ratio of communication time to total time,
and do not include all the effects of serial operations or load imbalance.
