 +-------------------------------------------------+
 |                                                 |
 |      CCC   AA    SSS  TTTTT  EEEEE  PPPP        |
 |     C     A  A  S       T    E      P   P       |
 |     C     AAAA   SS     T    EEE    PPPP        |
 |     C     A  A     S    T    E      P           |
 |      CCC  A  A  SSS     T    EEEEE  P           |
 |                                                 |
 +-------------------------------------------------+
 |                                                 |
 | Welcome to Academic Release CASTEP version 6.11 |
 | Ab Initio Total Energy Program                  |
 |                                                 |
 | Authors:                                        |
 | M. Segall, M. Probert, C. Pickard, P. Hasnip,   |
 | S. Clark, K. Refson, J. R. Yates, M. Payne      |
 |                                                 |
 | Contributors:                                   |
 | P. Lindan, P. Haynes, J. White, V. Milman,      |
 | N. Govind, M. Gibson, P. Tulip, V. Cocula,      |
 | B. Montanari, D. Quigley, M. Glover,            |
 | L. Bernasconi, A. Perlov, M. Plummer,           |
 | E. McNellis, J. Meyer, J. Gale, D. Jochym       |
 | J. Aarons, B. Walker, R. Gillen                 |
 |                                                 |
 | Copyright (c) 2000 - 2012                       |
 |                                                 |
 |     Distributed under the terms of an           |
 |     Agreement between the United Kingdom        |
 |     Car-Parrinello (UKCP) Consortium,           |
 |     Daresbury Laboratory and Accelrys, Inc.     |
 |                                                 |
 | Please cite                                     |
 |                                                 |
 |     "First principles methods using CASTEP"     |
 |                                                 |
 |         Zeitschrift fuer Kristallographie       |
 |           220(5-6) pp. 567-570 (2005)           |
 |                                                 |
 | S. J. Clark, M. D. Segall, C. J. Pickard,       |
 | P. J. Hasnip, M. J. Probert, K. Refson,         |
 | M. C. Payne                                     |
 |                                                 |
 |       in all publications arising from          |
 |              your use of CASTEP                 |
 |                                                 |
 +-------------------------------------------------+
 
 
 Compiled for darwin_x86_64_ifort14 on Tue Mar 17 04:46:41 2015
 from source code version 17dc085fd1b9+ Castep61_branch 2013-03-13
 using fast optimisation, fftw3 FFTs and mkl10 LAPACK and BLAS.
 

 ******************************* User Parameters *******************************
comment              : CASTEP calculation from Materials Studio # comment string (S)
iprint               : 3                                        # verbosity control (I)
continuation         : default                                  # continuation filename (S)
task                 : SinglePoint                              # type of calculation (S)
calculatestress      : F                                        # stress on/off (L)
calculatedensdiff    : F                                        # calculate density difference based on atoms (L)
calculateelf         : F                                        # ELF on/off (L)
calculatehirshfeld   : T                                        # Hirshfeld on/off (L)
pagewvfns            : 0                                        # page wavefunctions to disk (I)
optstrategy          : Speed                                    # optimization strategy (S)
xcfunctional         : PBE                                      # exchange-correlation functional (S)
cutoffenergy         : 380.0000000 ev                           # maximum energy of planewaves in basis set (P)
gridscale            : 1.7500000                                # standard grid size (R)
finitebasiscorr      : 0                                        # finite basis set correction (S)
spin                 : 4.0000000                                # net spin (R)
spinpolarized        : T                                        # spin polarized (L)
nextrabands          : 39                                       # number of extra bands (I)
metalsmethod         : dm                                       # treatment of metals or finite temperature insulator (S)
elecenergytol        : 0.0000010 ev                             # total energy per atom convergence tolerance (P)
maxscfcycles         : 6000                                     # maximum SCF cycles (I)
spinfix              : 6                                        # number of fixed spin iterations (I)
fixoccupancy         : F                                        # treat system as an insulator (L)
smearingwidth        : 0.1000000 ev                             # width of metal smearing (P)
numdumpcycles        : 0                                        # frequency of wavefunction dumps (I)
mixingscheme         : Pulay                                    # density mixing scheme (S)
mixhistorylength     : 20                                       # number of densities in mixing scheme (I)
mixchargeamp         : 0.5000000                                # charge density mixing amplitude (R)
mixchargegmax        : 1.5000000 1/ang                          # maximum G-vector in charge mixing scheme (P)
mixspinamp           : 2.0000000                                # spin density mixing amplitude (R)
mixspingmax          : 1.5000000 1/ang                          # maximum G-vector in spin mixing scheme (P)
popncalculate        : T                                        # population analysis on/off (L)
popnbondcutoff       : 3.0000000 ang                            # population analysis bond cutoff (P)
pdoscalculateweights : T                                        # partial DOS analysis on/off (L)

 *******************************************************************************
  
Reading continuation data from model file GDY_111_Fe_U.check
 
 Pseudo atomic calculation performed for C 2s2 2p2
 
 Converged in 17 iterations to a total energy of -145.8263 eV
 
 
 Pseudo atomic calculation performed for Fe 3d6 4s2
 
 Converged in 32 iterations to a total energy of -855.8846 eV
 
Initialising basis set for model.
Initialising basis set.
 
Standard grid dimensions:  54  54  60
Fine grid dimensions:  54  54  60
 
Plane wave load balancing: max  13063 min  13049 average  13056
True cut-off energy of basis :  13.964
Reinitialising basis set for current geometry.
 Reassigning basis set.
True cut-off energy of basis :  13.964
Read in wavefunction from model.
Read in wavefunction from model.
Continuing from previous run with ground state wavefunction.
Continuing from previous run with ground state density.
Second spin Fermi energy found in continuation file.
Forces found in continuation file.
LDA+U occupation matrix found in continuation file.
 Info: ELEC_ENERGY_TOL modified from    0.100000E-04 eV to    0.100000E-05 eV

 ******************************* User Parameters *******************************
comment              : CASTEP calculation from Materials Studio # comment string (S)
iprint               : 3                                        # verbosity control (I)
continuation         : default                                  # continuation filename (S)
task                 : SinglePoint                              # type of calculation (S)
calculatestress      : F                                        # stress on/off (L)
calculatedensdiff    : F                                        # calculate density difference based on atoms (L)
calculateelf         : F                                        # ELF on/off (L)
calculatehirshfeld   : T                                        # Hirshfeld on/off (L)
pagewvfns            : 0                                        # page wavefunctions to disk (I)
optstrategy          : Speed                                    # optimization strategy (S)
xcfunctional         : PBE                                      # exchange-correlation functional (S)
cutoffenergy         : 380.0000000 ev                           # maximum energy of planewaves in basis set (P)
gridscale            : 1.7500000                                # standard grid size (R)
finitebasiscorr      : 0                                        # finite basis set correction (S)
spin                 : 4.0000000                                # net spin (R)
nextrabands          : 39                                       # number of extra bands (I)
metalsmethod         : dm                                       # treatment of metals or finite temperature insulator (S)
elecenergytol        : 0.0000010 ev                             # total energy per atom convergence tolerance (P)
maxscfcycles         : 6000                                     # maximum SCF cycles (I)
spinfix              : 6                                        # number of fixed spin iterations (I)
fixoccupancy         : F                                        # treat system as an insulator (L)
smearingwidth        : 0.1000000 ev                             # width of metal smearing (P)
numdumpcycles        : 0                                        # frequency of wavefunction dumps (I)
mixingscheme         : Pulay                                    # density mixing scheme (S)
mixhistorylength     : 20                                       # number of densities in mixing scheme (I)
mixchargeamp         : 0.5000000                                # charge density mixing amplitude (R)
mixchargegmax        : 1.5000000 1/ang                          # maximum G-vector in charge mixing scheme (P)
mixspinamp           : 2.0000000                                # spin density mixing amplitude (R)
mixspingmax          : 1.5000000 1/ang                          # maximum G-vector in spin mixing scheme (P)
popncalculate        : T                                        # population analysis on/off (L)
popnbondcutoff       : 3.0000000 ang                            # population analysis bond cutoff (P)
pdoscalculateweights : T                                        # partial DOS analysis on/off (L)

 *******************************************************************************
  
 Calculation parallelised over 4 processes.
 Data is distributed by k-point(4-way)

 ************************************ Title ************************************
 CASTEP calculation from Materials Studio

 ***************************** General Parameters ******************************
  
 output verbosity                               : extreme (3)
 continuing from                                : GDY_111_Fe_U.check
 write checkpoint data to                       : GDY_111_Fe_U.check
 type of calculation                            : single point energy
 stress calculation                             : off
 density difference calculation                 : off
 electron localisation func (ELF) calculation   : off
 Hirshfeld analysis                             : on
 unlimited duration calculation
 timing information                             : on
 memory usage estimate                          : on
 write final potential to formatted file        : off
 write final density to formatted file          : off
 write BibTeX reference list                    : on
  
 output         length unit                     : A
 output           mass unit                     : amu
 output           time unit                     : ps
 output         charge unit                     : e
 output         energy unit                     : eV
 output          force unit                     : eV/A
 output       velocity unit                     : A/ps
 output       pressure unit                     : GPa
 output     inv_length unit                     : 1/A
 output      frequency unit                     : cm-1
 output force constant unit                     : eV/A**2
 output         volume unit                     : A**3
 output   IR intensity unit                     : (D/A)**2/amu
 output         dipole unit                     : D
 output         efield unit                     : eV/A/e
 output        entropy unit                     : J/mol/K
  
 wavefunctions paging                           : none
 random number generator seed                   :  135622536
 data distribution                              : optimal for this architecture
 optimization strategy                          : maximize speed(+++)

 *********************** Exchange-Correlation Parameters ***********************
  
 using functional                               : Perdew Burke Ernzerhof
 Divergence correction                          : off
 DFT+D: Semi-empirical dispersion correction    : off

 ************************* Pseudopotential Parameters **************************
  
 pseudopotential representation                 : reciprocal space
 <beta|phi> representation                      : reciprocal space

 **************************** Basis Set Parameters *****************************
  
 plane wave basis set cut-off                   :   380.0000   eV
 size of standard grid                          :     1.7500
 size of   fine   gmax                          :    17.4771   1/A
 largest prime factor in FFT                    :          5
 finite basis set correction                    : none

 **************************** Electronic Parameters ****************************
  
 number of  electrons                           :  80.00    
 net charge of system                           :  0.000    
 net spin   of system                           :  4.000    
 number of  up  spins                           :  42.00    
 number of down spins                           :  38.00    
 treating system as spin-polarized
 number of bands                                :         81

 ********************* Electronic Minimization Parameters **********************
  
 Method: Treating system as metallic with density mixing treatment of electrons,
         and number of  SD  steps               :          1
         and number of  CG  steps               :          4
  
 total energy / atom convergence tol.           : 0.1000E-05   eV
 eigen-energy convergence tolerance             : 0.1000E-05   eV
 max force / atom convergence tol.              : ignored
 convergence tolerance window                   :          3   cycles
 max. number of SCF cycles                      :       6000
 number of fixed-spin iterations                :          6
 smearing scheme                                : Gaussian
 smearing width                                 : 0.1000       eV
 Fermi energy convergence tolerance             : 0.1000E-06   eV
 periodic dipole correction                     : NONE

 ************************** Density Mixing Parameters **************************
  
 density-mixing scheme                          : Pulay
 max. length of mixing history                  :         20
 charge density mixing amplitude                : 0.5000    
   spin density mixing amplitude                :  2.000    
 cut-off energy for mixing                      :  380.0       eV
 charge density mixing g-vector                 :  1.500       1/A
   spin density mixing g-vector                 :  1.500       1/A

 *********************** Population Analysis Parameters ************************
  
 Population analysis with cutoff                :  3.000       A
 Partial DOS weights calculated

 *******************************************************************************
  
 
                           -------------------------------
                                      Unit Cell
                           -------------------------------
        Real Lattice(A)                      Reciprocal Lattice(1/A)
   8.1975930  -4.7328825   0.0000000        0.7664671   0.0000000   0.0000000
   0.0000000   9.4657650   0.0000000        0.3832336   0.6637800   0.0000000
   0.0000000   0.0000000   9.9992130        0.0000000   0.0000000   0.6283680
 
                       Lattice parameters(A)       Cell Angles
                    a =    9.465765          alpha =   90.000000
                    b =    9.465765          beta  =   90.000000
                    c =    9.999213          gamma =  120.000000
 
                       Current cell volume =  775.903821       A**3
 
                           -------------------------------
                                     Cell Contents
                           -------------------------------
                         Total number of ions in cell =   19
                      Total number of species in cell =    2
                        Max number of any one species =   18
 
            xxxxxxxxxxxxxxxxxxxxxxxxxxxxxxxxxxxxxxxxxxxxxxxxxxxxxxxxxxxx
            x  Element    Atom        Fractional coordinates of atoms  x
            x            Number           u          v          w      x
            x----------------------------------------------------------x
            x  C            1         0.151207   0.151207   0.500000   x
            x  C            2         0.299266   0.299266   0.500000   x
            x  C            3         0.429058   0.429058   0.500000   x
            x  C            4         0.848793   0.000000   0.500000   x
            x  C            5         0.700734  -0.000000   0.500000   x
            x  C            6         0.570942  -0.000000   0.500000   x
            x  C            7         0.000000   0.848793   0.500000   x
            x  C            8         0.000000   0.700734   0.500000   x
            x  C            9         0.000000   0.570942   0.500000   x
            x  C           10         0.848793   0.848793   0.500000   x
            x  C           11         0.700734   0.700734   0.500000   x
            x  C           12         0.570942   0.570942   0.500000   x
            x  C           13         0.151207   0.000000   0.500000   x
            x  C           14         0.299266  -0.000000   0.500000   x
            x  C           15         0.429058  -0.000000   0.500000   x
            x  C           16         0.000000   0.151207   0.500000   x
            x  C           17         0.000000   0.299266   0.500000   x
            x  C           18         0.000000   0.429058   0.500000   x
            x  Fe           1         0.788483   0.210837   0.499810   x
            xxxxxxxxxxxxxxxxxxxxxxxxxxxxxxxxxxxxxxxxxxxxxxxxxxxxxxxxxxxx
 
 
                         No user defined ionic velocities
 
                           -------------------------------
                                   Details of Species
                           -------------------------------
 
                               Mass of species in AMU
                                    C   12.0109997
                                    Fe   55.8470001
 
                          Electric Quadrupole Moment (Barn)
                                    C    0.0332700 Isotope 11
                                    Fe    0.1600000 Isotope 57
         xxxxxxxxxxxxxxxxxxxxxxxxxxxxxxxxxxxxxxxxxxxxxxxxxxxxxxxxxxxxxxxxxxxxxx
         |  Element    Atom         Initial            Initial magnetic       |
         |            Number    spin polarization        moment (uB)          |
         |--------------------------------------------------------------------|
         | C              1         0.000000              0.000               |
         | C              2         0.000000              0.000               |
         | C              3         0.000000              0.000               |
         | C              4         0.000000              0.000               |
         | C              5         0.000000              0.000               |
         | C              6         0.000000              0.000               |
         | C              7         0.000000              0.000               |
         | C              8         0.000000              0.000               |
         | C              9         0.000000              0.000               |
         | C             10         0.000000              0.000               |
         | C             11         0.000000              0.000               |
         | C             12         0.000000              0.000               |
         | C             13         0.000000              0.000               |
         | C             14         0.000000              0.000               |
         | C             15         0.000000              0.000               |
         | C             16         0.000000              0.000               |
         | C             17         0.000000              0.000               |
         | C             18         0.000000              0.000               |
         | Fe             1         0.500000              4.000               |
         xxxxxxxxxxxxxxxxxxxxxxxxxxxxxxxxxxxxxxxxxxxxxxxxxxxxxxxxxxxxxxxxxxxxxx
 


         Quantisation axis:    0.00000   0.00000   1.00000

         Units for Hubbard U values are eV
         xxxxxxxxxxxxxxxxxxxxxxxxxxxxxxxxxxxxxxxxxxxxxxxxxxxxxxxxxxxxxxxxxxxx
         |  Element     Atom     Hubbard U   values by orbital type         |
         |             Number      s          p          d          f       |
         |------------------------------------------------------------------|
         |C             1         0.00000    0.00000    0.00000    0.00000  |
         |C             2         0.00000    0.00000    0.00000    0.00000  |
         |C             3         0.00000    0.00000    0.00000    0.00000  |
         |C             4         0.00000    0.00000    0.00000    0.00000  |
         |C             5         0.00000    0.00000    0.00000    0.00000  |
         |C             6         0.00000    0.00000    0.00000    0.00000  |
         |C             7         0.00000    0.00000    0.00000    0.00000  |
         |C             8         0.00000    0.00000    0.00000    0.00000  |
         |C             9         0.00000    0.00000    0.00000    0.00000  |
         |C            10         0.00000    0.00000    0.00000    0.00000  |
         |C            11         0.00000    0.00000    0.00000    0.00000  |
         |C            12         0.00000    0.00000    0.00000    0.00000  |
         |C            13         0.00000    0.00000    0.00000    0.00000  |
         |C            14         0.00000    0.00000    0.00000    0.00000  |
         |C            15         0.00000    0.00000    0.00000    0.00000  |
         |C            16         0.00000    0.00000    0.00000    0.00000  |
         |C            17         0.00000    0.00000    0.00000    0.00000  |
         |C            18         0.00000    0.00000    0.00000    0.00000  |
         |Fe            1         0.00000    0.00000   10.00000    0.00000  |
         xxxxxxxxxxxxxxxxxxxxxxxxxxxxxxxxxxxxxxxxxxxxxxxxxxxxxxxxxxxxxxxxxxxx
 
         Units for Hubbard alpha values are EV
         xxxxxxxxxxxxxxxxxxxxxxxxxxxxxxxxxxxxxxxxxxxxxxxxxxxxxxxxxxxxxxxxxxxx
         |  Element     Atom     Hubbard alpha values by orbital type       |
         |             Number      s          p          d          f       |
         |------------------------------------------------------------------|
         |C             1         0.00000    0.00000    0.00000    0.00000  |
         |C             2         0.00000    0.00000    0.00000    0.00000  |
         |C             3         0.00000    0.00000    0.00000    0.00000  |
         |C             4         0.00000    0.00000    0.00000    0.00000  |
         |C             5         0.00000    0.00000    0.00000    0.00000  |
         |C             6         0.00000    0.00000    0.00000    0.00000  |
         |C             7         0.00000    0.00000    0.00000    0.00000  |
         |C             8         0.00000    0.00000    0.00000    0.00000  |
         |C             9         0.00000    0.00000    0.00000    0.00000  |
         |C            10         0.00000    0.00000    0.00000    0.00000  |
         |C            11         0.00000    0.00000    0.00000    0.00000  |
         |C            12         0.00000    0.00000    0.00000    0.00000  |
         |C            13         0.00000    0.00000    0.00000    0.00000  |
         |C            14         0.00000    0.00000    0.00000    0.00000  |
         |C            15         0.00000    0.00000    0.00000    0.00000  |
         |C            16         0.00000    0.00000    0.00000    0.00000  |
         |C            17         0.00000    0.00000    0.00000    0.00000  |
         |C            18         0.00000    0.00000    0.00000    0.00000  |
         |Fe            1         0.00000    0.00000    0.05000    0.00000  |
         xxxxxxxxxxxxxxxxxxxxxxxxxxxxxxxxxxxxxxxxxxxxxxxxxxxxxxxxxxxxxxxxxxxx
 
 
                          Files used for pseudopotentials:
                                    C C_00PBE.usp
                                    Fe Fe_00PBE.uspcc
 
                           -------------------------------
                              k-Points For BZ Sampling
                           -------------------------------
                       MP grid size for SCF calculation is  2  2  2
                         Number of kpoints used =           4
 
             +++++++++++++++++++++++++++++++++++++++++++++++++++++++
             +  Number       Fractional coordinates        Weight  +
             +-----------------------------------------------------+
             +     1  -0.250000  -0.250000  -0.250000   0.2500000  +
             +     2  -0.250000  -0.250000   0.250000   0.2500000  +
             +     3  -0.250000   0.250000  -0.250000   0.2500000  +
             +     4  -0.250000   0.250000   0.250000   0.2500000  +
             +++++++++++++++++++++++++++++++++++++++++++++++++++++++
 
                           -------------------------------
                               Symmetry and Constraints
                           -------------------------------
 
         There are no symmetry operations specified or generated for this cell
         There are no ionic constraints specified or generated for this cell
                      Maximum deviation from symmetry =  0.00000         ANG
               Point group of crystal =     1: C1, 1, 1
 
                        Centre of mass is NOT constrained
                       No ionic constraints specified
 
                         Number of cell constraints= 0
                         Cell constraints are:  1 2 3 4 5 6
 
                         External pressure/stress (GPa)
                          0.00000   0.00000   0.00000
                                    0.00000   0.00000
                                              0.00000
  
+---------------- MEMORY AND SCRATCH DISK ESTIMATES PER NODE -----------------+
|                                                     Memory          Disk    |
| Model and support data                              265.5 MB         0.0 MB |
| Electronic energy minimisation requirements         104.6 MB         0.0 MB |
|                                               ----------------------------- |
| Approx. total storage required per node             370.1 MB         0.0 MB |
|                                                                             |
| Requirements will fluctuate during execution and may exceed these estimates |
+-----------------------------------------------------------------------------+
electronic_minimisation: Initialising
 
 Pseudo atomic calculation performed for C 2s2 2p2
 
 Converged in 18 iterations to a total energy of -145.8263 eV
 
 
 Pseudo atomic calculation performed for Fe 3d6 4s2
 
 Converged in 35 iterations to a total energy of -855.8846 eV
 
  Accepting available lda+u occ matrix: 
 
     LDA+U occupation numbers
     ------------------------
Species   Ion   l  spin               occupancies
==================================================================
 -------------------------------------------
 Channel            1  and spin            1  :
 -------------------------------------------
 Density matrix
     0.982    -0.000     0.000     0.005     0.009
     0.000     0.000     0.000     0.000     0.000
    -0.000     0.992    -0.000    -0.000     0.000
     0.000     0.000     0.000     0.000     0.000
     0.000    -0.000     0.992    -0.000     0.000
     0.000     0.000     0.000     0.000     0.000
     0.005    -0.000    -0.000     0.948     0.019
     0.000     0.000     0.000     0.000     0.000
     0.009     0.000     0.000     0.019     0.970
     0.000     0.000     0.000     0.000     0.000
           1           1 Total:    4.88454712510949       Mz:
  0.000000000000000E+000
 -------------------------------------------
 Matrix of eigenvectors
occupation :   DZZ       DZY       DZX       DXX-YY    DXY       
     0.937 :      -0.00     -0.00     -0.00     -0.87      0.50
           :       0.00      0.00      0.00      0.00      0.00
     0.971 :       0.68      0.00     -0.00     -0.37     -0.64
           :       0.00      0.00      0.00      0.00      0.00
     0.992 :       0.74      0.04     -0.01      0.33      0.59
           :       0.00      0.00      0.00      0.00      0.00
     0.992 :      -0.01      0.70      0.71     -0.01     -0.01
           :       0.00      0.00      0.00      0.00      0.00
     0.992 :      -0.03      0.71     -0.70     -0.01     -0.02
           :       0.00      0.00      0.00      0.00      0.00
 ->>---------------------------------------<<-
 -------------------------------------------
 Channel            1  and spin            2  :
 -------------------------------------------
 Density matrix
     0.966    -0.001     0.001    -0.006    -0.010
     0.000     0.000     0.000     0.000     0.000
    -0.001     0.039     0.023     0.000    -0.000
     0.000     0.000     0.000     0.000     0.000
     0.001     0.023     0.064     0.000    -0.000
     0.000     0.000     0.000     0.000     0.000
    -0.006     0.000     0.000     0.687    -0.339
     0.000     0.000     0.000     0.000     0.000
    -0.010    -0.000    -0.000    -0.339     0.288
     0.000     0.000     0.000     0.000     0.000
           1           2 Total:    2.04480063601341       Mz:
  0.000000000000000E+000
 -------------------------------------------
 Matrix of eigenvectors
occupation :   DZZ       DZY       DZX       DXX-YY    DXY       
     0.026 :      -0.00     -0.86      0.51     -0.00     -0.00
           :       0.00      0.00      0.00      0.00      0.00
     0.078 :       0.00     -0.51     -0.86      0.00      0.00
           :       0.00      0.00      0.00      0.00      0.00
     0.094 :      -0.01      0.00     -0.00     -0.50     -0.87
           :       0.00      0.00      0.00      0.00      0.00
     0.881 :       0.00      0.00      0.00      0.87     -0.50
           :       0.00      0.00      0.00      0.00      0.00
     0.966 :      -1.00      0.00     -0.00      0.01      0.01
           :       0.00      0.00      0.00      0.00      0.00
 ->>---------------------------------------<<-
  Fe       1    2   up:   0.94  0.97  0.99  0.99  0.99
                    dn:   0.03  0.08  0.09  0.88  0.97
==================================================================
 
electronic_minimisation: Initialising density mixing
 Initialising mixing density basis set.
Density mixing plane wave load balancing: max  12943 min  12943 average  12943
Calculating Ewald energy for ionic configuration
              Ewald: real-space energy =    4242.657646 eV
        Ewald: reciprocal-space energy =    1354.479272 eV
         Ewald: (sum_charge)**2 Energy =    2068.366514 eV
         Ewald: (sum_charge**2) Energy =     858.870360 eV
                          Ewald Energy =    2669.900044 eV
Calculating non-Coulombic energy for ionic configuration
Symmetrising density
Calculating local potential
Calculating Hubbard U potential
 Density matrix in cubic harmonics:
     0.9823    -0.0000     0.0000     0.0051     0.0091
     0.0000     0.0000     0.0000     0.0000     0.0000
    -0.0000     0.9922    -0.0001    -0.0000     0.0000
     0.0000     0.0000     0.0000     0.0000     0.0000
     0.0000    -0.0001     0.9922    -0.0000     0.0000
     0.0000     0.0000     0.0000     0.0000     0.0000
     0.0051    -0.0000    -0.0000     0.9479     0.0187
     0.0000     0.0000     0.0000     0.0000     0.0000
     0.0091     0.0000     0.0000     0.0187     0.9699
     0.0000     0.0000     0.0000     0.0000     0.0000
 Hermiticity: (0.110484913434931,0.000000000000000E+000)
 Density matrix in cubic harmonics:
     0.9662    -0.0009     0.0007    -0.0058    -0.0099
     0.0000     0.0000     0.0000     0.0000     0.0000
    -0.0009     0.0391     0.0226     0.0002    -0.0001
     0.0000     0.0000     0.0000     0.0000     0.0000
     0.0007     0.0226     0.0644     0.0003    -0.0001
     0.0000     0.0000     0.0000     0.0000     0.0000
    -0.0058     0.0002     0.0003     0.6868    -0.3388
     0.0000     0.0000     0.0000     0.0000     0.0000
    -0.0099    -0.0001    -0.0001    -0.3388     0.2883
     0.0000     0.0000     0.0000     0.0000     0.0000
 Hermiticity: (0.319992010878820,0.000000000000000E+000)
Calculating non-local weights
Calculating KE and non-local eigenvalues to find total energy
 
Init
Exchange-correlation energy      =     -1303.60957820656335571 eV
+Hartree energy                  =      5498.94771648048390489 eV
+Local pseudopotential energy    =    -12283.77068191794751328 eV
----------------------------------
Potential energy (total)         =     -8088.43254364394942968 eV
                                  
+Hubbard energy                  =         2.15238464309260458 eV
+Kinetic energy                  =      1696.43057262998513579 eV
+Non-local energy                =        29.98949888588992607 eV
+Electronic entropy term (-TS)   =         0.00000000000000000 eV
+Ewald energy (const)            =      2669.90004362738091004 eV
+non-Coulombic energy (const)    =        54.49430792333114226 eV
----------------------------------
Total free energy (E-TS)         =     -3635.46573593426955995 eV
 
NB est. 0K energy (E-0.5TS)      =     -3635.46573593426955995 eV
 
(XC correction to eigenvalue sum =        11.63538372563330370 eV)
(LDA+U correction to eigenvalue su        32.49435450898929645 eV)
 
------------------------------------------------------------------------ <-- SCF
SCF loop      Energy           Fermi           Energy gain       Timer   <-- SCF
                               energy          per atom          (sec)   <-- SCF
------------------------------------------------------------------------ <-- SCF
Initial  -3.63546574E+003  0.00000000E+000                        19.81  <-- SCF
Starting SCF cycle     1 of up to  6000
 no. bands in each block=          18
 Calculating the R matrix for the precon Sinv operator
 Diagonalising expanded subspace
 Copying updated data back
eigenvalue    1 init= -21.42     fin= -21.42     change= 0.9267E-07
eigenvalue    2 init= -20.31     fin= -20.31     change= 0.2521E-06
eigenvalue    3 init= -19.95     fin= -19.95     change= 0.3685E-06
eigenvalue    4 init= -19.23     fin= -19.23     change= 0.2549E-06
eigenvalue    5 init= -19.01     fin= -19.01     change= 0.1394E-07
eigenvalue    6 init= -17.94     fin= -17.94     change= 0.1175E-06
eigenvalue    7 init= -17.74     fin= -17.74     change= 0.2800E-06
eigenvalue    8 init= -17.43     fin= -17.43     change= 0.7945E-08
eigenvalue    9 init= -17.07     fin= -17.07     change= 0.9050E-07
eigenvalue   10 init= -15.88     fin= -15.88     change= 0.3079E-06
eigenvalue   11 init= -15.54     fin= -15.54     change= 0.5166E-07
eigenvalue   12 init= -14.59     fin= -14.59     change= 0.3266E-06
eigenvalue   13 init= -13.82     fin= -13.82     change= 0.1131E-06
eigenvalue   14 init= -13.62     fin= -13.62     change= 0.5595E-07
eigenvalue   15 init= -13.31     fin= -13.31     change= 0.1800E-06
eigenvalue   16 init= -12.35     fin= -12.35     change= 0.3589E-06
eigenvalue   17 init= -11.72     fin= -11.72     change= 0.1990E-06
eigenvalue   18 init= -11.54     fin= -11.54     change= 0.1601E-05
 Checking convergence criteria
 Diagonalising expanded subspace
 Copying updated data back
eigenvalue    1 init= -21.42     fin= -21.42     change= 0.9267E-07
eigenvalue    2 init= -20.31     fin= -20.31     change= 0.2521E-06
eigenvalue    3 init= -19.95     fin= -19.95     change= 0.3686E-06
eigenvalue    4 init= -19.23     fin= -19.23     change= 0.2549E-06
eigenvalue    5 init= -19.01     fin= -19.01     change= 0.1394E-07
eigenvalue    6 init= -17.94     fin= -17.94     change= 0.1175E-06
eigenvalue    7 init= -17.74     fin= -17.74     change= 0.2801E-06
eigenvalue    8 init= -17.43     fin= -17.43     change= 0.7945E-08
eigenvalue    9 init= -17.07     fin= -17.07     change= 0.9051E-07
eigenvalue   10 init= -15.88     fin= -15.88     change= 0.3080E-06
eigenvalue   11 init= -15.54     fin= -15.54     change= 0.5167E-07
eigenvalue   12 init= -14.59     fin= -14.59     change= 0.3267E-06
eigenvalue   13 init= -13.82     fin= -13.82     change= 0.1131E-06
eigenvalue   14 init= -13.62     fin= -13.62     change= 0.5596E-07
eigenvalue   15 init= -13.31     fin= -13.31     change= 0.1801E-06
eigenvalue   16 init= -12.35     fin= -12.35     change= 0.3589E-06
eigenvalue   17 init= -11.72     fin= -11.72     change= 0.1990E-06
eigenvalue   18 init= -11.54     fin= -11.54     change= 0.1752E-05
 Checking convergence criteria
 Diagonalising expanded subspace
 Copying updated data back
eigenvalue   19 init= -11.19     fin= -11.19     change= 0.5184E-06
eigenvalue   20 init= -11.05     fin= -11.05     change= 0.7017E-06
eigenvalue   21 init= -10.80     fin= -10.80     change= 0.1824E-05
eigenvalue   22 init= -10.28     fin= -10.28     change= 0.1282E-05
eigenvalue   23 init= -10.19     fin= -10.19     change= 0.1230E-05
eigenvalue   24 init= -9.294     fin= -9.294     change= 0.5661E-06
eigenvalue   25 init= -8.976     fin= -8.976     change= 0.7948E-06
eigenvalue   26 init= -8.884     fin= -8.884     change= 0.1417E-06
eigenvalue   27 init= -8.558     fin= -8.558     change= 0.1826E-05
eigenvalue   28 init= -8.134     fin= -8.134     change= 0.7061E-07
eigenvalue   29 init= -8.025     fin= -8.025     change= 0.3166E-06
eigenvalue   30 init= -7.642     fin= -7.642     change= 0.7816E-07
eigenvalue   31 init= -7.136     fin= -7.136     change= 0.1244E-05
eigenvalue   32 init= -7.130     fin= -7.130     change= 0.9624E-07
eigenvalue   33 init= -6.780     fin= -6.780     change= 0.1879E-06
eigenvalue   34 init= -6.410     fin= -6.410     change= 0.2046E-06
eigenvalue   35 init= -5.938     fin= -5.938     change= 0.7312E-07
eigenvalue   36 init= -5.330     fin= -5.330     change= 0.4018E-06
 Checking convergence criteria
 Diagonalising expanded subspace
 Copying updated data back
eigenvalue   19 init= -11.19     fin= -11.19     change= 0.6007E-06
eigenvalue   20 init= -11.05     fin= -11.05     change= 0.7019E-06
eigenvalue   21 init= -10.80     fin= -10.80     change= 0.2206E-05
eigenvalue   22 init= -10.28     fin= -10.28     change= 0.1439E-05
eigenvalue   23 init= -10.19     fin= -10.19     change= 0.1432E-05
eigenvalue   24 init= -9.294     fin= -9.294     change= 0.6077E-06
eigenvalue   25 init= -8.976     fin= -8.976     change= 0.8561E-06
eigenvalue   26 init= -8.884     fin= -8.884     change= 0.1417E-06
eigenvalue   27 init= -8.558     fin= -8.558     change= 0.2234E-05
eigenvalue   28 init= -8.134     fin= -8.134     change= 0.7065E-07
eigenvalue   29 init= -8.025     fin= -8.025     change= 0.3887E-06
eigenvalue   30 init= -7.642     fin= -7.642     change= 0.7825E-07
eigenvalue   31 init= -7.136     fin= -7.136     change= 0.1385E-05
eigenvalue   32 init= -7.130     fin= -7.130     change= 0.9824E-07
eigenvalue   33 init= -6.780     fin= -6.780     change= 0.2091E-06
eigenvalue   34 init= -6.410     fin= -6.410     change= 0.2048E-06
eigenvalue   35 init= -5.938     fin= -5.938     change= 0.7326E-07
eigenvalue   36 init= -5.330     fin= -5.330     change= 0.4670E-06
 Checking convergence criteria
 Diagonalising expanded subspace
 Copying updated data back
eigenvalue   37 init= -5.052     fin= -5.052     change= 0.2144E-07
eigenvalue   38 init= -5.039     fin= -5.039     change= 0.3709E-06
eigenvalue   39 init= -4.710     fin= -4.710     change= 0.1687E-07
eigenvalue   40 init= -4.459     fin= -4.459     change= 0.4862E-08
eigenvalue   41 init= -4.221     fin= -4.221     change= 0.7180E-07
eigenvalue   42 init= -1.631     fin= -1.631     change= 0.9806E-08
eigenvalue   43 init= -1.374     fin= -1.374     change= 0.2807E-06
eigenvalue   44 init= -1.357     fin= -1.357     change= 0.3435E-07
eigenvalue   45 init= -.3585     fin= -.3585     change= 0.2610E-06
eigenvalue   46 init= 0.1281     fin= 0.1281     change= 0.2292E-07
eigenvalue   47 init= 0.3649     fin= 0.3649     change= 0.3791E-05
eigenvalue   48 init= 0.5390     fin= 0.5390     change= 0.3885E-05
eigenvalue   49 init=  1.288     fin=  1.288     change= 0.1233E-05
eigenvalue   50 init=  1.499     fin=  1.499     change= 0.2091E-04
eigenvalue   51 init=  1.661     fin=  1.661     change= 0.2002E-04
eigenvalue   52 init=  1.928     fin=  1.928     change= 0.2967E-04
eigenvalue   53 init=  2.052     fin=  2.052     change= 0.3830E-05
eigenvalue   54 init=  2.544     fin=  2.544     change= 0.4635E-04
 Checking convergence criteria
 Diagonalising expanded subspace
 Copying updated data back
eigenvalue   37 init= -5.052     fin= -5.052     change= 0.2184E-07
eigenvalue   38 init= -5.039     fin= -5.039     change= 0.4384E-06
eigenvalue   39 init= -4.710     fin= -4.710     change= 0.1723E-07
eigenvalue   40 init= -4.459     fin= -4.459     change= 0.5142E-08
eigenvalue   41 init= -4.221     fin= -4.221     change= 0.7357E-07
eigenvalue   42 init= -1.631     fin= -1.631     change= 0.1009E-07
eigenvalue   43 init= -1.374     fin= -1.374     change= 0.2910E-06
eigenvalue   44 init= -1.357     fin= -1.357     change= 0.3585E-07
eigenvalue   45 init= -.3585     fin= -.3585     change= 0.3436E-06
eigenvalue   46 init= 0.1281     fin= 0.1281     change= 0.2401E-07
eigenvalue   47 init= 0.3649     fin= 0.3649     change= 0.4132E-05
eigenvalue   48 init= 0.5390     fin= 0.5390     change= 0.4230E-05
eigenvalue   49 init=  1.288     fin=  1.288     change= 0.1385E-05
eigenvalue   50 init=  1.499     fin=  1.499     change= 0.2356E-04
eigenvalue   51 init=  1.661     fin=  1.661     change= 0.2280E-04
eigenvalue   52 init=  1.928     fin=  1.928     change= 0.3497E-04
eigenvalue   53 init=  2.052     fin=  2.052     change= 0.4441E-05
eigenvalue   54 init=  2.544     fin=  2.544     change= 0.5616E-04
 Checking convergence criteria
 Diagonalising expanded subspace
 Copying updated data back
eigenvalue   55 init=  2.608     fin=  2.608     change= 0.2822E-04
eigenvalue   56 init=  2.912     fin=  2.912     change= 0.4635E-04
eigenvalue   57 init=  3.368     fin=  3.368     change= 0.1204E-04
eigenvalue   58 init=  3.520     fin=  3.520     change= 0.1681E-04
eigenvalue   59 init=  3.566     fin=  3.566     change= 0.2109E-04
eigenvalue   60 init=  3.827     fin=  3.827     change= 0.3030E-05
eigenvalue   61 init=  3.921     fin=  3.920     change= 0.4006E-04
eigenvalue   62 init=  4.016     fin=  4.016     change= 0.7012E-05
eigenvalue   63 init=  4.150     fin=  4.150     change= 0.3158E-04
eigenvalue   64 init=  4.193     fin=  4.193     change= 0.4854E-04
eigenvalue   65 init=  4.309     fin=  4.309     change= 0.1606E-04
eigenvalue   66 init=  4.553     fin=  4.553     change= 0.1011E-04
eigenvalue   67 init=  4.690     fin=  4.690     change= 0.4704E-04
eigenvalue   68 init=  4.801     fin=  4.801     change= 0.5187E-04
eigenvalue   69 init=  4.971     fin=  4.971     change= 0.5454E-04
eigenvalue   70 init=  5.104     fin=  5.104     change= 0.4603E-04
eigenvalue   71 init=  5.183     fin=  5.183     change= 0.4205E-04
eigenvalue   72 init=  5.225     fin=  5.225     change= 0.2855E-04
 Checking convergence criteria
 Diagonalising expanded subspace
 Copying updated data back
eigenvalue   55 init=  2.608     fin=  2.608     change= 0.3322E-04
eigenvalue   56 init=  2.912     fin=  2.912     change= 0.5506E-04
eigenvalue   57 init=  3.368     fin=  3.368     change= 0.1388E-04
eigenvalue   58 init=  3.520     fin=  3.520     change= 0.1941E-04
eigenvalue   59 init=  3.566     fin=  3.566     change= 0.2481E-04
eigenvalue   60 init=  3.827     fin=  3.827     change= 0.4153E-05
eigenvalue   61 init=  3.921     fin=  3.920     change= 0.5036E-04
eigenvalue   62 init=  4.016     fin=  4.016     change= 0.8332E-05
eigenvalue   63 init=  4.150     fin=  4.150     change= 0.4185E-04
eigenvalue   64 init=  4.193     fin=  4.193     change= 0.5998E-04
eigenvalue   65 init=  4.309     fin=  4.309     change= 0.2092E-04
eigenvalue   66 init=  4.553     fin=  4.553     change= 0.1287E-04
eigenvalue   67 init=  4.690     fin=  4.690     change= 0.6320E-04
eigenvalue   68 init=  4.801     fin=  4.801     change= 0.6991E-04
eigenvalue   69 init=  4.971     fin=  4.971     change= 0.7335E-04
eigenvalue   70 init=  5.104     fin=  5.104     change= 0.6464E-04
eigenvalue   71 init=  5.183     fin=  5.183     change= 0.5424E-04
eigenvalue   72 init=  5.225     fin=  5.225     change= 0.4036E-04
 Checking convergence criteria
 Diagonalising expanded subspace
 Copying updated data back
eigenvalue   55 init=  2.608     fin=  2.608     change= 0.3381E-04
eigenvalue   56 init=  2.912     fin=  2.912     change= 0.5599E-04
eigenvalue   57 init=  3.368     fin=  3.368     change= 0.1405E-04
eigenvalue   58 init=  3.520     fin=  3.520     change= 0.1984E-04
eigenvalue   59 init=  3.566     fin=  3.566     change= 0.2532E-04
eigenvalue   60 init=  3.827     fin=  3.827     change= 0.4394E-05
eigenvalue   61 init=  3.921     fin=  3.920     change= 0.5224E-04
eigenvalue   62 init=  4.016     fin=  4.016     change= 0.8538E-05
eigenvalue   63 init=  4.150     fin=  4.150     change= 0.4418E-04
eigenvalue   64 init=  4.193     fin=  4.193     change= 0.6200E-04
eigenvalue   65 init=  4.309     fin=  4.309     change= 0.2192E-04
eigenvalue   66 init=  4.553     fin=  4.553     change= 0.1364E-04
eigenvalue   67 init=  4.690     fin=  4.690     change= 0.6839E-04
eigenvalue   68 init=  4.801     fin=  4.801     change= 0.7643E-04
eigenvalue   69 init=  4.971     fin=  4.971     change= 0.7787E-04
eigenvalue   70 init=  5.104     fin=  5.104     change= 0.7110E-04
eigenvalue   71 init=  5.183     fin=  5.183     change= 0.5607E-04
eigenvalue   72 init=  5.225     fin=  5.225     change= 0.4434E-04
 Checking convergence criteria
 Diagonalising expanded subspace
 Copying updated data back
eigenvalue   73 init=  5.466     fin=  5.466     change= 0.2003E-04
eigenvalue   74 init=  5.689     fin=  5.689     change= 0.1940E-04
eigenvalue   75 init=  5.696     fin=  5.696     change= 0.4403E-04
eigenvalue   76 init=  5.775     fin=  5.775     change= 0.5569E-05
eigenvalue   77 init=  5.959     fin=  5.959     change= 0.5036E-04
eigenvalue   78 init=  6.082     fin=  6.082     change= 0.4480E-04
eigenvalue   79 init=  6.192     fin=  6.192     change= 0.5888E-04
eigenvalue   80 init=  6.234     fin=  6.234     change= 0.5690E-04
eigenvalue   81 init=  6.406     fin=  6.406     change= 0.9506E-04
 Checking convergence criteria
 Diagonalising expanded subspace
 Copying updated data back
eigenvalue   73 init=  5.466     fin=  5.466     change= 0.2739E-04
eigenvalue   74 init=  5.689     fin=  5.689     change= 0.2598E-04
eigenvalue   75 init=  5.696     fin=  5.696     change= 0.6648E-04
eigenvalue   76 init=  5.775     fin=  5.775     change= 0.7665E-05
eigenvalue   77 init=  5.959     fin=  5.959     change= 0.7780E-04
eigenvalue   78 init=  6.082     fin=  6.082     change= 0.6435E-04
eigenvalue   79 init=  6.192     fin=  6.192     change= 0.8618E-04
eigenvalue   80 init=  6.234     fin=  6.234     change= 0.8033E-04
eigenvalue   81 init=  6.406     fin=  6.406     change= 0.1696E-03
 Checking convergence criteria
 Diagonalising expanded subspace
 Copying updated data back
eigenvalue   73 init=  5.466     fin=  5.466     change= 0.3159E-04
eigenvalue   74 init=  5.689     fin=  5.689     change= 0.2978E-04
eigenvalue   75 init=  5.696     fin=  5.696     change= 0.7643E-04
eigenvalue   76 init=  5.775     fin=  5.775     change= 0.9417E-05
eigenvalue   77 init=  5.959     fin=  5.959     change= 0.9234E-04
eigenvalue   78 init=  6.082     fin=  6.082     change= 0.8449E-04
eigenvalue   79 init=  6.192     fin=  6.192     change= 0.1115E-03
eigenvalue   80 init=  6.234     fin=  6.234     change= 0.1015E-03
eigenvalue   81 init=  6.406     fin=  6.406     change= 0.2271E-03
 Checking convergence criteria
 Diagonalising expanded subspace
 Copying updated data back
eigenvalue   73 init=  5.466     fin=  5.466     change= 0.3276E-04
eigenvalue   74 init=  5.689     fin=  5.689     change= 0.3019E-04
eigenvalue   75 init=  5.696     fin=  5.696     change= 0.7949E-04
eigenvalue   76 init=  5.775     fin=  5.775     change= 0.1045E-04
eigenvalue   77 init=  5.959     fin=  5.959     change= 0.9668E-04
eigenvalue   78 init=  6.082     fin=  6.082     change= 0.1008E-03
eigenvalue   79 init=  6.192     fin=  6.192     change= 0.1292E-03
eigenvalue   80 init=  6.234     fin=  6.234     change= 0.1181E-03
eigenvalue   81 init=  6.406     fin=  6.406     change= 0.2871E-03
 Checking convergence criteria
 Diagonalising expanded subspace
 Copying updated data back
eigenvalue   73 init=  5.466     fin=  5.466     change= 0.3317E-04
eigenvalue   74 init=  5.689     fin=  5.689     change= 0.3038E-04
eigenvalue   75 init=  5.696     fin=  5.696     change= 0.8044E-04
eigenvalue   76 init=  5.775     fin=  5.775     change= 0.1090E-04
eigenvalue   77 init=  5.959     fin=  5.959     change= 0.9907E-04
eigenvalue   78 init=  6.082     fin=  6.082     change= 0.1107E-03
eigenvalue   79 init=  6.192     fin=  6.192     change= 0.1388E-03
eigenvalue   80 init=  6.234     fin=  6.234     change= 0.1240E-03
eigenvalue   81 init=  6.406     fin=  6.406     change= 0.3550E-03
 Checking convergence criteria
 no. bands in each block=          18
 Calculating the R matrix for the precon Sinv operator
 Diagonalising expanded subspace
 Copying updated data back
eigenvalue    1 init= -21.42     fin= -21.42     change= 0.1098E-06
eigenvalue    2 init= -20.18     fin= -20.18     change= 0.1882E-06
eigenvalue    3 init= -19.92     fin= -19.92     change= 0.5208E-06
eigenvalue    4 init= -19.07     fin= -19.07     change= 0.2209E-07
eigenvalue    5 init= -18.87     fin= -18.87     change= 0.3636E-06
eigenvalue    6 init= -17.97     fin= -17.97     change= 0.1378E-06
eigenvalue    7 init= -17.55     fin= -17.55     change= 0.5449E-06
eigenvalue    8 init= -17.48     fin= -17.48     change= 0.2533E-07
eigenvalue    9 init= -17.07     fin= -17.07     change= 0.1002E-06
eigenvalue   10 init= -15.76     fin= -15.76     change= 0.3270E-06
eigenvalue   11 init= -15.51     fin= -15.51     change= 0.2030E-06
eigenvalue   12 init= -14.49     fin= -14.49     change= 0.3422E-06
eigenvalue   13 init= -13.82     fin= -13.82     change= 0.1183E-06
eigenvalue   14 init= -13.64     fin= -13.64     change= 0.5520E-07
eigenvalue   15 init= -13.16     fin= -13.16     change= 0.2605E-06
eigenvalue   16 init= -12.28     fin= -12.28     change= 0.2308E-06
eigenvalue   17 init= -11.62     fin= -11.62     change= 0.1682E-06
eigenvalue   18 init= -10.98     fin= -10.98     change= 0.1867E-06
 Checking convergence criteria
 Diagonalising expanded subspace
 Copying updated data back
eigenvalue   19 init= -10.56     fin= -10.56     change= 0.6015E-06
eigenvalue   20 init= -9.897     fin= -9.897     change= 0.2033E-05
eigenvalue   21 init= -9.583     fin= -9.583     change= 0.6588E-06
eigenvalue   22 init= -9.481     fin= -9.481     change= 0.2084E-06
eigenvalue   23 init= -8.660     fin= -8.660     change= 0.1209E-05
eigenvalue   24 init= -8.515     fin= -8.515     change= 0.4604E-06
eigenvalue   25 init= -8.164     fin= -8.164     change= 0.4756E-06
eigenvalue   26 init= -8.147     fin= -8.147     change= 0.3965E-06
eigenvalue   27 init= -7.538     fin= -7.538     change= 0.2841E-06
eigenvalue   28 init= -7.518     fin= -7.518     change= 0.7163E-05
eigenvalue   29 init= -7.058     fin= -7.058     change= 0.2850E-06
eigenvalue   30 init= -6.843     fin= -6.843     change= 0.7171E-06
eigenvalue   31 init= -6.650     fin= -6.650     change= 0.3275E-05
eigenvalue   32 init= -6.181     fin= -6.181     change= 0.1187E-06
eigenvalue   33 init= -5.278     fin= -5.278     change= 0.1936E-06
eigenvalue   34 init= -5.260     fin= -5.260     change= 0.1237E-05
eigenvalue   35 init= -4.899     fin= -4.899     change= 0.2256E-05
eigenvalue   36 init= -4.848     fin= -4.848     change= 0.1050E-06
 Checking convergence criteria
 Diagonalising expanded subspace
 Copying updated data back
eigenvalue   19 init= -10.56     fin= -10.56     change= 0.7530E-06
eigenvalue   20 init= -9.897     fin= -9.897     change= 0.2553E-05
eigenvalue   21 init= -9.583     fin= -9.583     change= 0.7237E-06
eigenvalue   22 init= -9.481     fin= -9.481     change= 0.2087E-06
eigenvalue   23 init= -8.660     fin= -8.660     change= 0.1350E-05
eigenvalue   24 init= -8.515     fin= -8.515     change= 0.4621E-06
eigenvalue   25 init= -8.164     fin= -8.164     change= 0.4775E-06
eigenvalue   26 init= -8.147     fin= -8.147     change= 0.4986E-06
eigenvalue   27 init= -7.538     fin= -7.538     change= 0.2858E-06
eigenvalue   28 init= -7.518     fin= -7.518     change= 0.9147E-05
eigenvalue   29 init= -7.058     fin= -7.058     change= 0.2858E-06
eigenvalue   30 init= -6.843     fin= -6.843     change= 0.8637E-06
eigenvalue   31 init= -6.650     fin= -6.650     change= 0.3711E-05
eigenvalue   32 init= -6.181     fin= -6.181     change= 0.1191E-06
eigenvalue   33 init= -5.278     fin= -5.278     change= 0.1945E-06
eigenvalue   34 init= -5.260     fin= -5.260     change= 0.1479E-05
eigenvalue   35 init= -4.899     fin= -4.899     change= 0.2942E-05
eigenvalue   36 init= -4.848     fin= -4.848     change= 0.1056E-06
 Checking convergence criteria
 Diagonalising expanded subspace
 Copying updated data back
eigenvalue   37 init= -4.545     fin= -4.545     change= 0.2871E-06
eigenvalue   38 init= -4.473     fin= -4.473     change= 0.2870E-07
eigenvalue   39 init= -1.762     fin= -1.762     change= 0.3121E-06
eigenvalue   40 init= -1.652     fin= -1.652     change= 0.7151E-06
eigenvalue   41 init= -1.334     fin= -1.334     change= 0.5589E-06
eigenvalue   42 init= -.3017     fin= -.3017     change= 0.1340E-05
eigenvalue   43 init= -.5303E-01 fin= -.5303E-01 change= 0.1832E-06
eigenvalue   44 init= 0.2268     fin= 0.2268     change= 0.1654E-04
eigenvalue   45 init= 0.5819     fin= 0.5819     change= 0.1427E-05
eigenvalue   46 init=  1.085     fin=  1.085     change= 0.1855E-05
eigenvalue   47 init=  1.403     fin=  1.403     change= 0.1225E-04
eigenvalue   48 init=  1.465     fin=  1.465     change= 0.1931E-04
eigenvalue   49 init=  1.658     fin=  1.658     change= 0.1927E-04
eigenvalue   50 init=  1.897     fin=  1.897     change= 0.2163E-04
eigenvalue   51 init=  1.961     fin=  1.961     change= 0.2505E-04
eigenvalue   52 init=  2.393     fin=  2.393     change= 0.2643E-04
eigenvalue   53 init=  2.584     fin=  2.584     change= 0.3250E-04
eigenvalue   54 init=  2.685     fin=  2.685     change= 0.2944E-04
 Checking convergence criteria
 Diagonalising expanded subspace
 Copying updated data back
eigenvalue   37 init= -4.545     fin= -4.545     change= 0.3193E-06
eigenvalue   38 init= -4.473     fin= -4.473     change= 0.3378E-07
eigenvalue   39 init= -1.762     fin= -1.762     change= 0.3533E-06
eigenvalue   40 init= -1.652     fin= -1.652     change= 0.8196E-06
eigenvalue   41 init= -1.334     fin= -1.334     change= 0.6448E-06
eigenvalue   42 init= -.3017     fin= -.3017     change= 0.1771E-05
eigenvalue   43 init= -.5303E-01 fin= -.5303E-01 change= 0.2114E-06
eigenvalue   44 init= 0.2268     fin= 0.2268     change= 0.1932E-04
eigenvalue   45 init= 0.5819     fin= 0.5819     change= 0.2026E-05
eigenvalue   46 init=  1.085     fin=  1.085     change= 0.2205E-05
eigenvalue   47 init=  1.403     fin=  1.403     change= 0.1510E-04
eigenvalue   48 init=  1.465     fin=  1.465     change= 0.2221E-04
eigenvalue   49 init=  1.658     fin=  1.658     change= 0.2176E-04
eigenvalue   50 init=  1.897     fin=  1.897     change= 0.2466E-04
eigenvalue   51 init=  1.961     fin=  1.961     change= 0.3077E-04
eigenvalue   52 init=  2.393     fin=  2.393     change= 0.3225E-04
eigenvalue   53 init=  2.584     fin=  2.584     change= 0.3824E-04
eigenvalue   54 init=  2.685     fin=  2.685     change= 0.3515E-04
 Checking convergence criteria
 Diagonalising expanded subspace
 Copying updated data back
eigenvalue   55 init=  2.915     fin=  2.915     change= 0.3198E-04
eigenvalue   56 init=  3.119     fin=  3.119     change= 0.3055E-04
eigenvalue   57 init=  3.418     fin=  3.418     change= 0.2044E-04
eigenvalue   58 init=  3.578     fin=  3.578     change= 0.2313E-04
eigenvalue   59 init=  3.696     fin=  3.696     change= 0.2107E-04
eigenvalue   60 init=  3.884     fin=  3.884     change= 0.1012E-04
eigenvalue   61 init=  3.906     fin=  3.906     change= 0.2027E-04
eigenvalue   62 init=  4.068     fin=  4.068     change= 0.1155E-04
eigenvalue   63 init=  4.155     fin=  4.155     change= 0.2582E-04
eigenvalue   64 init=  4.166     fin=  4.166     change= 0.2267E-04
eigenvalue   65 init=  4.508     fin=  4.508     change= 0.7599E-05
eigenvalue   66 init=  4.564     fin=  4.564     change= 0.2116E-04
eigenvalue   67 init=  4.638     fin=  4.637     change= 0.2979E-04
eigenvalue   68 init=  4.788     fin=  4.788     change= 0.4500E-04
eigenvalue   69 init=  4.919     fin=  4.919     change= 0.4276E-04
eigenvalue   70 init=  5.060     fin=  5.060     change= 0.3249E-04
eigenvalue   71 init=  5.130     fin=  5.130     change= 0.3706E-04
eigenvalue   72 init=  5.213     fin=  5.213     change= 0.2735E-04
 Checking convergence criteria
 Diagonalising expanded subspace
 Copying updated data back
eigenvalue   55 init=  2.915     fin=  2.915     change= 0.3649E-04
eigenvalue   56 init=  3.119     fin=  3.119     change= 0.4015E-04
eigenvalue   57 init=  3.418     fin=  3.418     change= 0.2345E-04
eigenvalue   58 init=  3.578     fin=  3.578     change= 0.2879E-04
eigenvalue   59 init=  3.696     fin=  3.696     change= 0.2563E-04
eigenvalue   60 init=  3.884     fin=  3.884     change= 0.1426E-04
eigenvalue   61 init=  3.906     fin=  3.906     change= 0.2412E-04
eigenvalue   62 init=  4.068     fin=  4.068     change= 0.1464E-04
eigenvalue   63 init=  4.155     fin=  4.155     change= 0.2979E-04
eigenvalue   64 init=  4.166     fin=  4.166     change= 0.2921E-04
eigenvalue   65 init=  4.508     fin=  4.508     change= 0.1026E-04
eigenvalue   66 init=  4.564     fin=  4.564     change= 0.2985E-04
eigenvalue   67 init=  4.638     fin=  4.637     change= 0.4065E-04
eigenvalue   68 init=  4.788     fin=  4.788     change= 0.6127E-04
eigenvalue   69 init=  4.919     fin=  4.919     change= 0.5620E-04
eigenvalue   70 init=  5.060     fin=  5.060     change= 0.4496E-04
eigenvalue   71 init=  5.130     fin=  5.130     change= 0.5128E-04
eigenvalue   72 init=  5.213     fin=  5.213     change= 0.3815E-04
 Checking convergence criteria
 Diagonalising expanded subspace
 Copying updated data back
eigenvalue   55 init=  2.915     fin=  2.915     change= 0.3683E-04
eigenvalue   56 init=  3.119     fin=  3.119     change= 0.4314E-04
eigenvalue   57 init=  3.418     fin=  3.418     change= 0.2380E-04
eigenvalue   58 init=  3.578     fin=  3.578     change= 0.2957E-04
eigenvalue   59 init=  3.696     fin=  3.696     change= 0.2646E-04
eigenvalue   60 init=  3.884     fin=  3.884     change= 0.1544E-04
eigenvalue   61 init=  3.906     fin=  3.906     change= 0.2461E-04
eigenvalue   62 init=  4.068     fin=  4.068     change= 0.1509E-04
eigenvalue   63 init=  4.155     fin=  4.155     change= 0.3047E-04
eigenvalue   64 init=  4.166     fin=  4.166     change= 0.3038E-04
eigenvalue   65 init=  4.508     fin=  4.508     change= 0.1093E-04
eigenvalue   66 init=  4.564     fin=  4.564     change= 0.3296E-04
eigenvalue   67 init=  4.638     fin=  4.637     change= 0.4359E-04
eigenvalue   68 init=  4.788     fin=  4.788     change= 0.6703E-04
eigenvalue   69 init=  4.919     fin=  4.919     change= 0.5921E-04
eigenvalue   70 init=  5.060     fin=  5.060     change= 0.4928E-04
eigenvalue   71 init=  5.130     fin=  5.130     change= 0.5708E-04
eigenvalue   72 init=  5.213     fin=  5.213     change= 0.4214E-04
 Checking convergence criteria
 Diagonalising expanded subspace
 Copying updated data back
eigenvalue   73 init=  5.484     fin=  5.484     change= 0.9037E-05
eigenvalue   74 init=  5.646     fin=  5.646     change= 0.2611E-04
eigenvalue   75 init=  5.699     fin=  5.699     change= 0.1819E-04
eigenvalue   76 init=  5.718     fin=  5.718     change= 0.1407E-04
eigenvalue   77 init=  5.899     fin=  5.899     change= 0.3437E-04
eigenvalue   78 init=  6.039     fin=  6.039     change= 0.4502E-04
eigenvalue   79 init=  6.128     fin=  6.128     change= 0.4546E-04
eigenvalue   80 init=  6.147     fin=  6.147     change= 0.3493E-04
eigenvalue   81 init=  6.309     fin=  6.309     change= 0.6732E-04
 Checking convergence criteria
 Diagonalising expanded subspace
 Copying updated data back
eigenvalue   73 init=  5.484     fin=  5.484     change= 0.1172E-04
eigenvalue   74 init=  5.646     fin=  5.646     change= 0.3703E-04
eigenvalue   75 init=  5.699     fin=  5.699     change= 0.2665E-04
eigenvalue   76 init=  5.718     fin=  5.718     change= 0.1998E-04
eigenvalue   77 init=  5.899     fin=  5.899     change= 0.4625E-04
eigenvalue   78 init=  6.039     fin=  6.039     change= 0.6396E-04
eigenvalue   79 init=  6.128     fin=  6.128     change= 0.6414E-04
eigenvalue   80 init=  6.147     fin=  6.147     change= 0.5106E-04
eigenvalue   81 init=  6.309     fin=  6.309     change= 0.9890E-04
 Checking convergence criteria
 Diagonalising expanded subspace
 Copying updated data back
eigenvalue   73 init=  5.484     fin=  5.484     change= 0.1253E-04
eigenvalue   74 init=  5.646     fin=  5.646     change= 0.4221E-04
eigenvalue   75 init=  5.699     fin=  5.699     change= 0.3107E-04
eigenvalue   76 init=  5.718     fin=  5.718     change= 0.2373E-04
eigenvalue   77 init=  5.899     fin=  5.899     change= 0.5468E-04
eigenvalue   78 init=  6.039     fin=  6.039     change= 0.7593E-04
eigenvalue   79 init=  6.128     fin=  6.128     change= 0.7711E-04
eigenvalue   80 init=  6.147     fin=  6.147     change= 0.6366E-04
eigenvalue   81 init=  6.309     fin=  6.309     change= 0.1258E-03
 Checking convergence criteria
 Diagonalising expanded subspace
 Copying updated data back
eigenvalue   73 init=  5.484     fin=  5.484     change= 0.1260E-04
eigenvalue   74 init=  5.646     fin=  5.646     change= 0.4226E-04
eigenvalue   75 init=  5.699     fin=  5.699     change= 0.3117E-04
eigenvalue   76 init=  5.718     fin=  5.718     change= 0.2445E-04
eigenvalue   77 init=  5.899     fin=  5.899     change= 0.5604E-04
eigenvalue   78 init=  6.039     fin=  6.039     change= 0.7833E-04
eigenvalue   79 init=  6.128     fin=  6.128     change= 0.7793E-04
eigenvalue   80 init=  6.147     fin=  6.147     change= 0.7349E-04
eigenvalue   81 init=  6.309     fin=  6.309     change= 0.1536E-03
 Checking convergence criteria
 Diagonalising expanded subspace
 Copying updated data back
eigenvalue   73 init=  5.484     fin=  5.484     change= 0.1264E-04
eigenvalue   74 init=  5.646     fin=  5.646     change= 0.4227E-04
eigenvalue   75 init=  5.699     fin=  5.699     change= 0.3121E-04
eigenvalue   76 init=  5.718     fin=  5.718     change= 0.2476E-04
eigenvalue   77 init=  5.899     fin=  5.899     change= 0.5615E-04
eigenvalue   78 init=  6.039     fin=  6.039     change= 0.7964E-04
eigenvalue   79 init=  6.128     fin=  6.128     change= 0.7811E-04
eigenvalue   80 init=  6.147     fin=  6.147     change= 0.7831E-04
eigenvalue   81 init=  6.309     fin=  6.309     change= 0.1770E-03
 Checking convergence criteria
(Entering electronic_find_fermi_fix)
Smearing occupancies with Gaussians
Spin: 1, Min eigenvalue: -2.1827E+001 eV, Max eigenvalue:  6.8056E+000 eV
Fermi energy for up electrons = -2.0817E+000 eV [lower bound; range =  5.33E-008 eV]
Spin: 2, Min eigenvalue: -2.1827E+001 eV, Max eigenvalue:  6.7500E+000 eV
Fermi energy for down electrons = -2.0807E+000 eV [lower bound; range =  5.32E-008 eV]
(Leaving electronic_find_fermi_fix)
electronic_occupancy_update: Warning, fix_occupancy=F but material has an apparent band gap of  2.7103E+000eV for spin down electrons.
Calculating KE and non-local eigenvalues to find total energy
 
End of SCF cycle energies
Exchange-correlation energy      =     -1303.60957820656335571 eV
+Hartree energy                  =      5498.94771648048390489 eV
+Local pseudopotential energy    =    -12283.77068191794751328 eV
----------------------------------
Potential energy (total)         =     -8088.28719011058365140 eV
                                  
+Hubbard energy                  =         2.15238464309260458 eV
+Kinetic energy                  =      1696.50004144976719545 eV
+Non-local energy                =        30.68065793715932799 eV
+Electronic entropy term (-TS)   =        -0.02650976298705307 eV
+Ewald energy (const)            =      2669.90004362738091004 eV
+non-Coulombic energy (const)    =        54.49430792333114226 eV
----------------------------------
Total free energy (E-TS)         =     -3634.58626429283913239 eV
 
NB est. 0K energy (E-0.5TS)      =     -3634.57300941134553796 eV
 
(XC correction to eigenvalue sum =        11.63538372563330370 eV)
(LDA+U correction to eigenvalue su        32.49435450898929645 eV)
 
      1  -3.63458626E+003 -2.08120628E+000  -4.62879811E-002      40.23  <-- SCF
 Calculate new overlap and lda+u matrix
 Density matrix in cubic harmonics:
     0.9823    -0.0000     0.0000     0.0051     0.0091
     0.0000     0.0000     0.0000     0.0000     0.0000
    -0.0000     0.9922    -0.0001    -0.0000     0.0000
     0.0000     0.0000     0.0000     0.0000     0.0000
     0.0000    -0.0001     0.9922    -0.0000     0.0000
     0.0000     0.0000     0.0000     0.0000     0.0000
     0.0051    -0.0000    -0.0000     0.9479     0.0187
     0.0000     0.0000     0.0000     0.0000     0.0000
     0.0091     0.0000     0.0000     0.0187     0.9699
     0.0000     0.0000     0.0000     0.0000     0.0000
 Hermiticity: (0.110484913434931,0.000000000000000E+000)
 Density matrix in cubic harmonics:
     0.9662    -0.0009     0.0007    -0.0058    -0.0099
     0.0000     0.0000     0.0000     0.0000     0.0000
    -0.0009     0.0391     0.0226     0.0002    -0.0001
     0.0000     0.0000     0.0000     0.0000     0.0000
     0.0007     0.0226     0.0644     0.0003    -0.0001
     0.0000     0.0000     0.0000     0.0000     0.0000
    -0.0058     0.0002     0.0003     0.6868    -0.3388
     0.0000     0.0000     0.0000     0.0000     0.0000
    -0.0099    -0.0001    -0.0001    -0.3388     0.2883
     0.0000     0.0000     0.0000     0.0000     0.0000
 Hermiticity: (0.319992010878820,0.000000000000000E+000)
 Density matrix in cubic harmonics:
     0.9819    -0.0000     0.0000     0.0052     0.0093
     0.0000     0.0000     0.0000     0.0000     0.0000
    -0.0000     0.9921    -0.0001    -0.0000     0.0000
     0.0000     0.0000     0.0000     0.0000     0.0000
     0.0000    -0.0001     0.9921    -0.0000     0.0000
     0.0000     0.0000     0.0000     0.0000     0.0000
     0.0052    -0.0000    -0.0000     0.9469     0.0190
     0.0000     0.0000     0.0000     0.0000     0.0000
     0.0093     0.0000     0.0000     0.0190     0.9693
     0.0000     0.0000     0.0000     0.0000     0.0000
 Hermiticity: (0.112606053025605,0.000000000000000E+000)
 Density matrix in cubic harmonics:
     0.9651    -0.0009     0.0007    -0.0072    -0.0124
     0.0000     0.0000     0.0000     0.0000     0.0000
    -0.0009     0.0380     0.0220     0.0002    -0.0001
     0.0000     0.0000     0.0000     0.0000     0.0000
     0.0007     0.0220     0.0626     0.0003    -0.0001
     0.0000     0.0000     0.0000     0.0000     0.0000
    -0.0072     0.0002     0.0003     0.6843    -0.3384
     0.0000     0.0000     0.0000     0.0000     0.0000
    -0.0124    -0.0001    -0.0001    -0.3384     0.2863
     0.0000     0.0000     0.0000     0.0000     0.0000
 Hermiticity: (0.318795008728626,0.000000000000000E+000)
  Hubbard energy diff=  4.620687248602370E-003 eV <-- LDA_U
  ----------- LDA_U: New occupation matrix calculated: --------------------
 
     LDA+U occupation numbers
     ------------------------
Species   Ion   l  spin               occupancies
==================================================================
 -------------------------------------------
 Channel            1  and spin            1  :
 -------------------------------------------
 Density matrix
     0.982    -0.000     0.000     0.005     0.009
     0.000     0.000     0.000     0.000     0.000
    -0.000     0.992    -0.000    -0.000     0.000
     0.000     0.000     0.000     0.000     0.000
     0.000    -0.000     0.992    -0.000     0.000
     0.000     0.000     0.000     0.000     0.000
     0.005    -0.000    -0.000     0.947     0.019
     0.000     0.000     0.000     0.000     0.000
     0.009     0.000     0.000     0.019     0.969
     0.000     0.000     0.000     0.000     0.000
           1           1 Total:    4.88222767868911       Mz:
  0.000000000000000E+000
 -------------------------------------------
 Matrix of eigenvectors
occupation :   DZZ       DZY       DZX       DXX-YY    DXY       
     0.936 :      -0.00     -0.00     -0.00     -0.87      0.50
           :       0.00      0.00      0.00      0.00      0.00
     0.970 :       0.68      0.00     -0.00     -0.37     -0.64
           :       0.00      0.00      0.00      0.00      0.00
     0.992 :       0.74      0.04     -0.01      0.33      0.59
           :       0.00      0.00      0.00      0.00      0.00
     0.992 :      -0.01      0.70      0.71     -0.01     -0.01
           :       0.00      0.00      0.00      0.00      0.00
     0.992 :      -0.03      0.71     -0.70     -0.01     -0.02
           :       0.00      0.00      0.00      0.00      0.00
 ->>---------------------------------------<<-
 -------------------------------------------
 Channel            1  and spin            2  :
 -------------------------------------------
 Density matrix
     0.965    -0.001     0.001    -0.007    -0.012
     0.000     0.000     0.000     0.000     0.000
    -0.001     0.038     0.022     0.000    -0.000
     0.000     0.000     0.000     0.000     0.000
     0.001     0.022     0.063     0.000    -0.000
     0.000     0.000     0.000     0.000     0.000
    -0.007     0.000     0.000     0.684    -0.338
     0.000     0.000     0.000     0.000     0.000
    -0.012    -0.000    -0.000    -0.338     0.286
     0.000     0.000     0.000     0.000     0.000
           1           2 Total:    2.03625090967629       Mz:
  0.000000000000000E+000
 -------------------------------------------
 Matrix of eigenvectors
occupation :   DZZ       DZY       DZX       DXX-YY    DXY       
     0.025 :      -0.00     -0.86      0.51     -0.00     -0.00
           :       0.00      0.00      0.00      0.00      0.00
     0.075 :       0.00     -0.51     -0.86      0.00      0.00
           :       0.00      0.00      0.00      0.00      0.00
     0.092 :      -0.02      0.00     -0.00     -0.50     -0.87
           :       0.00      0.00      0.00      0.00      0.00
     0.878 :       0.00      0.00      0.00      0.87     -0.50
           :       0.00      0.00      0.00      0.00      0.00
     0.965 :      -1.00      0.00     -0.00      0.01      0.01
           :       0.00      0.00      0.00      0.00      0.00
 ->>---------------------------------------<<-
  Fe       1    2   up:   0.94  0.97  0.99  0.99  0.99
                    dn:   0.03  0.08  0.09  0.88  0.97
==================================================================
 
 Only the high frequencies of the density were mixed in this cycle 
Symmetrising density
Calculating local potential
Calculating Hubbard U potential
 Density matrix in cubic harmonics:
     0.9819    -0.0000     0.0000     0.0052     0.0093
     0.0000     0.0000     0.0000     0.0000     0.0000
    -0.0000     0.9921    -0.0001    -0.0000     0.0000
     0.0000     0.0000     0.0000     0.0000     0.0000
     0.0000    -0.0001     0.9921    -0.0000     0.0000
     0.0000     0.0000     0.0000     0.0000     0.0000
     0.0052    -0.0000    -0.0000     0.9469     0.0190
     0.0000     0.0000     0.0000     0.0000     0.0000
     0.0093     0.0000     0.0000     0.0190     0.9693
     0.0000     0.0000     0.0000     0.0000     0.0000
 Hermiticity: (0.112606053025605,0.000000000000000E+000)
 Density matrix in cubic harmonics:
     0.9651    -0.0009     0.0007    -0.0072    -0.0124
     0.0000     0.0000     0.0000     0.0000     0.0000
    -0.0009     0.0380     0.0220     0.0002    -0.0001
     0.0000     0.0000     0.0000     0.0000     0.0000
     0.0007     0.0220     0.0626     0.0003    -0.0001
     0.0000     0.0000     0.0000     0.0000     0.0000
    -0.0072     0.0002     0.0003     0.6843    -0.3384
     0.0000     0.0000     0.0000     0.0000     0.0000
    -0.0124    -0.0001    -0.0001    -0.3384     0.2863
     0.0000     0.0000     0.0000     0.0000     0.0000
 Hermiticity: (0.318795008728626,0.000000000000000E+000)
Calculating non-local weights
Starting SCF cycle     2 of up to  6000
 no. bands in each block=          18
 Diagonalising expanded subspace
 Copying updated data back
eigenvalue    1 init= -21.42     fin= -21.42     change= 0.8822E-08
eigenvalue    2 init= -20.31     fin= -20.31     change= 0.2888E-07
eigenvalue    3 init= -19.95     fin= -19.95     change= 0.7278E-07
eigenvalue    4 init= -19.23     fin= -19.23     change= 0.3626E-07
eigenvalue    5 init= -19.01     fin= -19.01     change= 0.2191E-08
eigenvalue    6 init= -17.94     fin= -17.94     change= 0.2453E-07
eigenvalue    7 init= -17.74     fin= -17.74     change= 0.4875E-07
eigenvalue    8 init= -17.43     fin= -17.43     change= 0.7340E-09
eigenvalue    9 init= -17.07     fin= -17.07     change= 0.1833E-07
eigenvalue   10 init= -15.88     fin= -15.88     change= 0.6276E-07
eigenvalue   11 init= -15.54     fin= -15.54     change= 0.8605E-08
eigenvalue   12 init= -14.59     fin= -14.59     change= 0.6428E-07
eigenvalue   13 init= -13.82     fin= -13.82     change= 0.2326E-07
eigenvalue   14 init= -13.62     fin= -13.62     change= 0.1161E-07
eigenvalue   15 init= -13.31     fin= -13.31     change= 0.2945E-07
eigenvalue   16 init= -12.35     fin= -12.35     change= 0.7816E-07
eigenvalue   17 init= -11.72     fin= -11.72     change= 0.1672E-07
eigenvalue   18 init= -11.54     fin= -11.54     change= 0.1723E-07
 Checking convergence criteria
 Diagonalising expanded subspace
 Copying updated data back
eigenvalue   19 init= -11.19     fin= -11.19     change= 0.1812E-07
eigenvalue   20 init= -11.04     fin= -11.04     change= 0.5937E-07
eigenvalue   21 init= -10.80     fin= -10.80     change= 0.5586E-07
eigenvalue   22 init= -10.28     fin= -10.28     change= 0.2006E-07
eigenvalue   23 init= -10.18     fin= -10.18     change= 0.2966E-07
eigenvalue   24 init= -9.294     fin= -9.294     change= 0.3688E-07
eigenvalue   25 init= -8.975     fin= -8.975     change= 0.2139E-07
eigenvalue   26 init= -8.883     fin= -8.883     change= 0.1126E-07
eigenvalue   27 init= -8.555     fin= -8.555     change= 0.6352E-07
eigenvalue   28 init= -8.134     fin= -8.134     change= 0.6784E-08
eigenvalue   29 init= -8.025     fin= -8.025     change= 0.1365E-07
eigenvalue   30 init= -7.642     fin= -7.642     change= 0.7508E-08
eigenvalue   31 init= -7.135     fin= -7.135     change= 0.1838E-07
eigenvalue   32 init= -7.130     fin= -7.130     change= 0.7917E-08
eigenvalue   33 init= -6.780     fin= -6.780     change= 0.3791E-08
eigenvalue   34 init= -6.409     fin= -6.409     change= 0.1761E-07
eigenvalue   35 init= -5.938     fin= -5.938     change= 0.7377E-08
eigenvalue   36 init= -5.329     fin= -5.329     change= 0.1129E-07
 Checking convergence criteria
 Diagonalising expanded subspace
 Copying updated data back
eigenvalue   37 init= -5.052     fin= -5.052     change= 0.1866E-08
eigenvalue   38 init= -5.039     fin= -5.039     change= 0.3441E-07
eigenvalue   39 init= -4.710     fin= -4.710     change= 0.1324E-08
eigenvalue   40 init= -4.459     fin= -4.459     change= 0.4916E-09
eigenvalue   41 init= -4.221     fin= -4.221     change= 0.5693E-08
eigenvalue   42 init= -1.631     fin= -1.631     change= 0.5943E-09
eigenvalue   43 init= -1.374     fin= -1.374     change= 0.7566E-08
eigenvalue   44 init= -1.357     fin= -1.357     change= 0.1323E-08
eigenvalue   45 init= -.3583     fin= -.3583     change= 0.2248E-07
eigenvalue   46 init= 0.1281     fin= 0.1281     change= 0.4797E-08
eigenvalue   47 init= 0.3650     fin= 0.3650     change= 0.4335E-07
eigenvalue   48 init= 0.5391     fin= 0.5391     change= 0.4390E-07
eigenvalue   49 init=  1.288     fin=  1.288     change= 0.2837E-07
eigenvalue   50 init=  1.499     fin=  1.499     change= 0.4884E-06
eigenvalue   51 init=  1.661     fin=  1.661     change= 0.3800E-06
eigenvalue   52 init=  1.928     fin=  1.928     change= 0.6938E-06
eigenvalue   53 init=  2.052     fin=  2.052     change= 0.1190E-06
eigenvalue   54 init=  2.544     fin=  2.544     change= 0.1667E-05
 Checking convergence criteria
 Diagonalising expanded subspace
 Copying updated data back
eigenvalue   37 init= -5.052     fin= -5.052     change= 0.1866E-08
eigenvalue   38 init= -5.039     fin= -5.039     change= 0.3451E-07
eigenvalue   39 init= -4.710     fin= -4.710     change= 0.1324E-08
eigenvalue   40 init= -4.459     fin= -4.459     change= 0.4921E-09
eigenvalue   41 init= -4.221     fin= -4.221     change= 0.5697E-08
eigenvalue   42 init= -1.631     fin= -1.631     change= 0.6033E-09
eigenvalue   43 init= -1.374     fin= -1.374     change= 0.7574E-08
eigenvalue   44 init= -1.357     fin= -1.357     change= 0.1339E-08
eigenvalue   45 init= -.3583     fin= -.3583     change= 0.2259E-07
eigenvalue   46 init= 0.1281     fin= 0.1281     change= 0.4798E-08
eigenvalue   47 init= 0.3650     fin= 0.3650     change= 0.4482E-07
eigenvalue   48 init= 0.5391     fin= 0.5391     change= 0.4566E-07
eigenvalue   49 init=  1.288     fin=  1.288     change= 0.3204E-07
eigenvalue   50 init=  1.499     fin=  1.499     change= 0.5547E-06
eigenvalue   51 init=  1.661     fin=  1.661     change= 0.4120E-06
eigenvalue   52 init=  1.928     fin=  1.928     change= 0.7810E-06
eigenvalue   53 init=  2.052     fin=  2.052     change= 0.1378E-06
eigenvalue   54 init=  2.544     fin=  2.544     change= 0.2318E-05
 Checking convergence criteria
 Diagonalising expanded subspace
 Copying updated data back
eigenvalue   55 init=  2.608     fin=  2.608     change= 0.3225E-06
eigenvalue   56 init=  2.912     fin=  2.912     change= 0.4151E-06
eigenvalue   57 init=  3.368     fin=  3.368     change= 0.2340E-06
eigenvalue   58 init=  3.520     fin=  3.520     change= 0.2962E-06
eigenvalue   59 init=  3.566     fin=  3.566     change= 0.3899E-06
eigenvalue   60 init=  3.827     fin=  3.827     change= 0.3792E-07
[...]
                                        0.830913336
 
 Species     1,  Atom     6  :  C
  Fractional coordinates :
                                        0.570942036  -0.000000000   0.500000000
  Cartesian coordinates (A) :
                                        4.680350420  -2.702201575   4.999606520
  Free atom total nuclear charge (e) :
                                        4.000000000
  Free atom total electronic charge on real space grid (e) :
                                       -4.000027955
  SCF total electronic charge on real space grid (e) :
                                      -80.001151010
  SCF total electronic spin on real space grid (hbar) :
                                        1.168535719
  cut-off radius for r-integrals :
                                       10.000000000
  Free atom volume (Bohr**3) :
                                       38.966109261
  Hirshfeld total electronic charge (e) :
                                       -4.010498647
  Hirshfeld net atomic charge (e) :
                                       -0.010498647
  Hirshfeld net atomic spin (hbar) :
                                       -0.006621440
  Hirshfeld atomic volume (Bohr**3) :
                                       31.733424559
  Hirshfeld / free atomic volume :
                                        0.814385248
 
 Species     1,  Atom     7  :  C
  Fractional coordinates :
                                        0.000000000   0.848793130   0.500000000
  Cartesian coordinates (A) :
                                        0.000000000   8.034476308   4.999606520
  Free atom total nuclear charge (e) :
                                        4.000000000
  Free atom total electronic charge on real space grid (e) :
                                       -4.000027903
  SCF total electronic charge on real space grid (e) :
                                      -80.001151010
  SCF total electronic spin on real space grid (hbar) :
                                        1.168535719
  cut-off radius for r-integrals :
                                       10.000000000
  Free atom volume (Bohr**3) :
                                       38.966065270
  Hirshfeld total electronic charge (e) :
                                       -3.998235015
  Hirshfeld net atomic charge (e) :
                                        0.001764985
  Hirshfeld net atomic spin (hbar) :
                                       -0.022144749
  Hirshfeld atomic volume (Bohr**3) :
                                       32.805466645
  Hirshfeld / free atomic volume :
                                        0.841898365
 
 Species     1,  Atom     8  :  C
  Fractional coordinates :
                                        0.000000000   0.700733564   0.500000000
  Cartesian coordinates (A) :
                                        0.000000000   6.632979249   4.999606520
  Free atom total nuclear charge (e) :
                                        4.000000000
  Free atom total electronic charge on real space grid (e) :
                                       -4.000027835
  SCF total electronic charge on real space grid (e) :
                                      -80.001151010
  SCF total electronic spin on real space grid (hbar) :
                                        1.168535719
  cut-off radius for r-integrals :
                                       10.000000000
  Free atom volume (Bohr**3) :
                                       38.966023977
  Hirshfeld total electronic charge (e) :
                                       -4.001988728
  Hirshfeld net atomic charge (e) :
                                       -0.001988728
  Hirshfeld net atomic spin (hbar) :
                                       -0.018621432
  Hirshfeld atomic volume (Bohr**3) :
                                       32.374953833
  Hirshfeld / free atomic volume :
                                        0.830850842
 
 Species     1,  Atom     9  :  C
  Fractional coordinates :
                                        0.000000000   0.570942036   0.500000000
  Cartesian coordinates (A) :
                                        0.000000000   5.404403150   4.999606520
  Free atom total nuclear charge (e) :
                                        4.000000000
  Free atom total electronic charge on real space grid (e) :
                                       -4.000027955
  SCF total electronic charge on real space grid (e) :
                                      -80.001151010
  SCF total electronic spin on real space grid (hbar) :
                                        1.168535719
  cut-off radius for r-integrals :
                                       10.000000000
  Free atom volume (Bohr**3) :
                                       38.966109261
  Hirshfeld total electronic charge (e) :
                                       -4.031694146
  Hirshfeld net atomic charge (e) :
                                       -0.031694146
  Hirshfeld net atomic spin (hbar) :
                                       -0.009507535
  Hirshfeld atomic volume (Bohr**3) :
                                       31.869368399
  Hirshfeld / free atomic volume :
                                        0.817874019
 
 Species     1,  Atom    10  :  C
  Fractional coordinates :
                                        0.848793130   0.848793130   0.500000000
  Cartesian coordinates (A) :
                                        6.958060589   4.017238154   4.999606520
  Free atom total nuclear charge (e) :
                                        4.000000000
  Free atom total electronic charge on real space grid (e) :
                                       -4.000026988
  SCF total electronic charge on real space grid (e) :
                                      -80.001151010
  SCF total electronic spin on real space grid (hbar) :
                                        1.168535719
  cut-off radius for r-integrals :
                                       10.000000000
  Free atom volume (Bohr**3) :
                                       38.965556604
  Hirshfeld total electronic charge (e) :
                                       -3.999534870
  Hirshfeld net atomic charge (e) :
                                        0.000465130
  Hirshfeld net atomic spin (hbar) :
                                       -0.030279517
  Hirshfeld atomic volume (Bohr**3) :
                                       32.819005775
  Hirshfeld / free atomic volume :
                                        0.842256819
 
 Species     1,  Atom    11  :  C
  Fractional coordinates :
                                        0.700733564   0.700733564   0.500000000
  Cartesian coordinates (A) :
                                        5.744328533   3.316489625   4.999606520
  Free atom total nuclear charge (e) :
                                        4.000000000
  Free atom total electronic charge on real space grid (e) :
                                       -4.000026932
  SCF total electronic charge on real space grid (e) :
                                      -80.001151010
  SCF total electronic spin on real space grid (hbar) :
                                        1.168535719
  cut-off radius for r-integrals :
                                       10.000000000
  Free atom volume (Bohr**3) :
                                       38.965519718
  Hirshfeld total electronic charge (e) :
                                       -4.035824706
  Hirshfeld net atomic charge (e) :
                                       -0.035824706
  Hirshfeld net atomic spin (hbar) :
                                       -0.014172564
  Hirshfeld atomic volume (Bohr**3) :
                                       32.678701191
  Hirshfeld / free atomic volume :
                                        0.838656880
 
 Species     1,  Atom    12  :  C
  Fractional coordinates :
                                        0.570942036   0.570942036   0.500000000
  Cartesian coordinates (A) :
                                        4.680350420   2.702201575   4.999606520
  Free atom total nuclear charge (e) :
                                        4.000000000
  Free atom total electronic charge on real space grid (e) :
                                       -4.000027033
  SCF total electronic charge on real space grid (e) :
                                      -80.001151010
  SCF total electronic spin on real space grid (hbar) :
                                        1.168535719
  cut-off radius for r-integrals :
                                       10.000000000
  Free atom volume (Bohr**3) :
                                       38.965599510
  Hirshfeld total electronic charge (e) :
                                       -4.044102765
  Hirshfeld net atomic charge (e) :
                                       -0.044102765
  Hirshfeld net atomic spin (hbar) :
                                       -0.018542702
  Hirshfeld atomic volume (Bohr**3) :
                                       32.432711280
  Hirshfeld / free atomic volume :
                                        0.832342160
 
 Species     1,  Atom    13  :  C
  Fractional coordinates :
                                        0.151206870   0.000000000   0.500000000
  Cartesian coordinates (A) :
                                        1.239532376  -0.715644351   4.999606520
  Free atom total nuclear charge (e) :
                                        4.000000000
  Free atom total electronic charge on real space grid (e) :
                                       -4.000027903
  SCF total electronic charge on real space grid (e) :
                                      -80.001151010
  SCF total electronic spin on real space grid (hbar) :
                                        1.168535719
  cut-off radius for r-integrals :
                                       10.000000000
  Free atom volume (Bohr**3) :
                                       38.966065270
  Hirshfeld total electronic charge (e) :
                                       -3.998221658
  Hirshfeld net atomic charge (e) :
                                        0.001778342
  Hirshfeld net atomic spin (hbar) :
                                       -0.022282849
  Hirshfeld atomic volume (Bohr**3) :
                                       32.805995188
  Hirshfeld / free atomic volume :
                                        0.841911929
 
 Species     1,  Atom    14  :  C
  Fractional coordinates :
                                        0.299266436  -0.000000000   0.500000000
  Cartesian coordinates (A) :
                                        2.453264433  -1.416392881   4.999606520
  Free atom total nuclear charge (e) :
                                        4.000000000
  Free atom total electronic charge on real space grid (e) :
                                       -4.000027835
  SCF total electronic charge on real space grid (e) :
                                      -80.001151010
  SCF total electronic spin on real space grid (hbar) :
                                        1.168535719
  cut-off radius for r-integrals :
                                       10.000000000
  Free atom volume (Bohr**3) :
                                       38.966023977
  Hirshfeld total electronic charge (e) :
                                       -4.002268085
  Hirshfeld net atomic charge (e) :
                                       -0.002268085
  Hirshfeld net atomic spin (hbar) :
                                       -0.018646769
  Hirshfeld atomic volume (Bohr**3) :
                                       32.376241039
  Hirshfeld / free atomic volume :
                                        0.830883876
 
 Species     1,  Atom    15  :  C
  Fractional coordinates :
                                        0.429057964  -0.000000000   0.500000000
  Cartesian coordinates (A) :
                                        3.517242545  -2.030680930   4.999606520
  Free atom total nuclear charge (e) :
                                        4.000000000
  Free atom total electronic charge on real space grid (e) :
                                       -4.000027955
  SCF total electronic charge on real space grid (e) :
                                      -80.001151010
  SCF total electronic spin on real space grid (hbar) :
                                        1.168535719
  cut-off radius for r-integrals :
                                       10.000000000
  Free atom volume (Bohr**3) :
                                       38.966109261
  Hirshfeld total electronic charge (e) :
                                       -4.031589196
  Hirshfeld net atomic charge (e) :
                                       -0.031589196
  Hirshfeld net atomic spin (hbar) :
                                       -0.009574060
  Hirshfeld atomic volume (Bohr**3) :
                                       31.869527839
  Hirshfeld / free atomic volume :
                                        0.817878111
 
 Species     1,  Atom    16  :  C
  Fractional coordinates :
                                        0.000000000   0.151206870   0.500000000
  Cartesian coordinates (A) :
                                        0.000000000   1.431288702   4.999606520
  Free atom total nuclear charge (e) :
                                        4.000000000
  Free atom total electronic charge on real space grid (e) :
                                       -4.000027903
  SCF total electronic charge on real space grid (e) :
                                      -80.001151010
  SCF total electronic spin on real space grid (hbar) :
                                        1.168535719
  cut-off radius for r-integrals :
                                       10.000000000
  Free atom volume (Bohr**3) :
                                       38.966065270
  Hirshfeld total electronic charge (e) :
                                       -3.994434551
  Hirshfeld net atomic charge (e) :
                                        0.005565449
  Hirshfeld net atomic spin (hbar) :
                                       -0.003626458
  Hirshfeld atomic volume (Bohr**3) :
                                       32.790739266
  Hirshfeld / free atomic volume :
                                        0.841520411
 
 Species     1,  Atom    17  :  C
  Fractional coordinates :
                                        0.000000000   0.299266436   0.500000000
  Cartesian coordinates (A) :
                                        0.000000000   2.832785761   4.999606520
  Free atom total nuclear charge (e) :
                                        4.000000000
  Free atom total electronic charge on real space grid (e) :
                                       -4.000027835
  SCF total electronic charge on real space grid (e) :
                                      -80.001151010
  SCF total electronic spin on real space grid (hbar) :
                                        1.168535719
  cut-off radius for r-integrals :
                                       10.000000000
  Free atom volume (Bohr**3) :
                                       38.966023977
  Hirshfeld total electronic charge (e) :
                                       -4.040969825
  Hirshfeld net atomic charge (e) :
                                       -0.040969825
  Hirshfeld net atomic spin (hbar) :
                                        0.012580121
  Hirshfeld atomic volume (Bohr**3) :
                                       32.376905430
  Hirshfeld / free atomic volume :
                                        0.830900927
 
 Species     1,  Atom    18  :  C
  Fractional coordinates :
                                        0.000000000   0.429057964   0.500000000
  Cartesian coordinates (A) :
                                        0.000000000   4.061361860   4.999606520
  Free atom total nuclear charge (e) :
                                        4.000000000
  Free atom total electronic charge on real space grid (e) :
                                       -4.000027955
  SCF total electronic charge on real space grid (e) :
                                      -80.001151010
  SCF total electronic spin on real space grid (hbar) :
                                        1.168535719
  cut-off radius for r-integrals :
                                       10.000000000
  Free atom volume (Bohr**3) :
                                       38.966109261
  Hirshfeld total electronic charge (e) :
                                       -4.009996460
  Hirshfeld net atomic charge (e) :
                                       -0.009996460
  Hirshfeld net atomic spin (hbar) :
                                       -0.006718695
  Hirshfeld atomic volume (Bohr**3) :
                                       31.731891307
  Hirshfeld / free atomic volume :
                                        0.814345900
 
 Species     2,  Atom     1  :  Fe
  Fractional coordinates :
                                        0.788482663   0.210836778   0.499810305
  Cartesian coordinates (A) :
                                        6.463659931  -1.736064403   4.997709723
  Free atom total nuclear charge (e) :
                                        8.000000000
  Free atom total electronic charge on real space grid (e) :
                                       -8.000001140
  SCF total electronic charge on real space grid (e) :
                                      -80.001151010
  SCF total electronic spin on real space grid (hbar) :
                                        1.168535719
  cut-off radius for r-integrals :
                                       11.000000000
  Free atom volume (Bohr**3) :
                                      104.794137864
  Hirshfeld total electronic charge (e) :
                                       -7.686521106
  Hirshfeld net atomic charge (e) :
                                        0.313478894
  Hirshfeld net atomic spin (hbar) :
                                        1.390826987
  Hirshfeld atomic volume (Bohr**3) :
                                       77.277887840
  Hirshfeld / free atomic volume :
                                        0.737425675
 
 
     Hirshfeld Analysis
     ------------------
Species   Ion     Hirshfeld Charge (e)  Spin (hbar)
===================================================
  C        1                 0.00       -0.03
  C        2                -0.04       -0.01
  C        3                -0.04       -0.02
  C        4                 0.01       -0.00
  C        5                -0.04        0.01
  C        6                -0.01       -0.01
  C        7                 0.00       -0.02
  C        8                -0.00       -0.02
  C        9                -0.03       -0.01
  C       10                 0.00       -0.03
  C       11                -0.04       -0.01
  C       12                -0.04       -0.02
  C       13                 0.00       -0.02
  C       14                -0.00       -0.02
  C       15                -0.03       -0.01
  C       16                 0.01       -0.00
  C       17                -0.04        0.01
  C       18                -0.01       -0.01
  Fe       1                 0.31        1.39
===================================================
 
 
Writing model to GDY_111_Fe_U.check
 
Writing analysis data to GDY_111_Fe_U.castep_bin
 
 A BibTeX formatted list of references used in this run has been written to 
 GDY_111_Fe_U.bib
 
Initialisation time =     17.01 s
Calculation time    =   1604.27 s
Finalisation time   =      4.55 s
Total time          =   1625.83 s
  
Overall parallel efficiency rating: Excellent (98%)                             
  
Data was distributed by:-
k-point (4-way); efficiency rating: Excellent (99%)                             
  
Parallel notes:
1) k-points were fully distributed.                                             
  
Efficiencies are estimated from the ratio of communication time to total time,
and do not include all the effects of serial operations or load imbalance.
